
                                 *****************
                                 * O   R   C   A *
                                 *****************

                                            #,                                       
                                            ###                                      
                                            ####                                     
                                            #####                                    
                                            ######                                   
                                           ########,                                 
                                     ,,################,,,,,                         
                               ,,#################################,,                 
                          ,,##########################################,,             
                       ,#########################################, ''#####,          
                    ,#############################################,,   '####,        
                  ,##################################################,,,,####,       
                ,###########''''           ''''###############################       
              ,#####''   ,,,,##########,,,,          '''####'''          '####       
            ,##' ,,,,###########################,,,                        '##       
           ' ,,###''''                  '''############,,,                           
         ,,##''                                '''############,,,,        ,,,,,,###''
      ,#''                                            '''#######################'''  
     '                                                          ''''####''''         
             ,#######,   #######,   ,#######,      ##                                
            ,#'     '#,  ##    ##  ,#'     '#,    #''#        ,####,   ,####,        
            ##       ##  ##   ,#'  ##            #'  '#       #'       #'  '#        
            ##       ##  #######   ##           ,######,      #####,   #    #        
            '#,     ,#'  ##    ##  '#,     ,#' ,#      #,     #,   #   #,  ,#        
             '#######'   ##     ##  '#######'  #'      '#     '####' # '####'        



                #########################################################
                #                        -***-                          #
                #          Department of theory and spectroscopy        #
                #                                                       #
                #                      Frank Neese                      #
                #                                                       #
                #     Directorship, Architecture, Infrastructure        #
                #                    SHARK, DRIVERS                     #
                #        Core code/Algorithms in most modules           #
                #                                                       #
                #        Max Planck Institute fuer Kohlenforschung      #
                #                Kaiser Wilhelm Platz 1                 #
                #                 D-45470 Muelheim/Ruhr                 #
                #                      Germany                          #
                #                                                       #
                #                  All rights reserved                  #
                #                        -***-                          #
                #########################################################


                         Program Version 6.0.0  -   RELEASE  -


 With contributions from (in alphabetic order):
   Daniel Aravena         : Magnetic Suceptibility
   Michael Atanasov       : Ab Initio Ligand Field Theory (pilot matlab implementation)
   Alexander A. Auer      : GIAO ZORA, VPT2 properties, NMR spectrum
   Ute Becker             : All parallelization in ORCA, NUMFREQ, NUMCALC
   Giovanni Bistoni       : ED, misc. LED, open-shell LED, HFLD
   Martin Brehm           : Molecular dynamics
   Dmytro Bykov           : pre 5.0 version of the SCF Hessian
   Marcos Casanova-Páez   : Triplet and SCS-CIS(D). UHF-(DLPNO)-IP/EA/STEOM-CCSD. UHF-CVS-IP/STEOM-CCSD
   Vijay G. Chilkuri      : MRCI spin determinant printing, contributions to CSF-ICE
   Pauline Colinet        : FMM embedding
   Dipayan Datta          : RHF DLPNO-CCSD density
   Achintya Kumar Dutta   : EOM-CC, STEOM-CC
   Nicolas Foglia         : Exact transition moments, OPA infrastructure, MCD improvements
   Dmitry Ganyushin       : Spin-Orbit,Spin-Spin,Magnetic field MRCI
   Miquel Garcia          : C-PCM and meta-GGA Hessian, CCSD/C-PCM, Gaussian charge scheme
   Tiago L. C. Gouveia    : GS-ROHF, GS-ROCIS
   Yang Guo               : DLPNO-NEVPT2, F12-NEVPT2, CIM, IAO-localization
   Andreas Hansen         : Spin unrestricted coupled pair/coupled cluster methods
   Ingolf Harden          : AUTO-CI MPn and infrastructure 
   Benjamin Helmich-Paris : MC-RPA, TRAH-(SCF,CASSCF), AVAS, COSX integrals, SCF dyn. polar.
   Lee Huntington         : MR-EOM, pCC
   Robert Izsak           : Overlap fitted RIJCOSX, COSX-SCS-MP3, EOM
   Riya Kayal             : Wick's Theorem for AUTO-CI, AUTO-CI UHF-CCSDT
   Emily Kempfer          : AUTO-CI, RHF CISDT and CCSDT
   Christian Kollmar      : KDIIS, OOCD, Brueckner-CCSD(T), CCSD density, CASPT2, CASPT2-K, improved NEVPT2
   Axel Koslowski         : Symmetry handling
   Simone Kossmann        : Meta GGA functionals, TD-DFT gradient, OOMP2, (MP2 Hessian; deprecated post 5.0)
   Lucas Lang             : DCDCAS
   Marvin Lechner         : AUTO-CI (C++ implementation), FIC-MRCC
   Spencer Leger          : CASSCF response
   Dagmar Lenk            : GEPOL surface, SMD, ORCA-2-JSON
   Dimitrios Liakos       : Extrapolation schemes; Compound Job, initial MDCI parallelization
   Dimitrios Manganas     : Further ROCIS development; embedding schemes. LFT, Crystal Embedding
   Dimitrios Pantazis     : SARC Basis sets
   Anastasios Papadopoulos: AUTO-CI, single reference methods and gradients
   Taras Petrenko         : pre 6.0 DFT Hessian and TD-DFT gradient, (ASA, deprecated), ECA, 1-Electron XAS/XES, NRVS
   Peter Pinski           : DLPNO-MP2, DLPNO-MP2 Gradient
   Christoph Reimann      : Effective Core Potentials
   Marius Retegan         : Local ZFS, SOC
   Christoph Riplinger    : Optimizer, TS searches, QM/MM, DLPNO-CCSD(T), (RO)-DLPNO pert. Triples
   Michael Roemelt        : Original ROCIS implementation
   Masaaki Saitow         : Open-shell DLPNO-CCSD energy and density
   Barbara Sandhoefer     : DKH picture change effects
   Kantharuban Sivalingam : CASSCF convergence/infrastructure, NEVPT2 and variants, FIC-MRCI
   Bernardo de Souza      : ESD, SOC TD-DFT
   Georgi Stoychev        : AutoAux, RI-MP2 NMR, DLPNO-MP2 response, X2C
   Van Anh Tran           : RI-MP2 g-tensors
   Willem Van den Heuvel  : Paramagnetic NMR
   Zikuan Wang            : NOTCH, Electric field optimization 
   Frank Wennmohs         : Technical directorship and infrastructure
   Hang Xu                : AUTO-CI-Response properties 


 We gratefully acknowledge several colleagues who have allowed us to
 interface, adapt or use parts of their codes:
   Stefan Grimme, W. Hujo, H. Kruse, P. Pracht,  : VdW corrections, initial TS optimization,
                  C. Bannwarth, S. Ehlert,         DFT functionals, gCP, sTDA/sTD-DF
                  L. Wittmann, M. Mueller
   Ed Valeev, F. Pavosevic, A. Kumar             : LibInt (2-el integral package), F12 methods
   Garnet Chan, S. Sharma, J. Yang, R. Olivares  : DMRG
   Ulf Ekstrom                                   : XCFun DFT Library
   Mihaly Kallay                                 : mrcc  (arbitrary order and MRCC methods)
   Frank Weinhold                                : gennbo (NPA and NBO analysis)
   Simon Mueller                                 : openCOSMO-RS
   Christopher J. Cramer and Donald G. Truhlar   : smd solvation model
   Lars Goerigk                                  : TD-DFT with DH, B97 family of functionals
   V. Asgeirsson, H. Jonsson                     : NEB implementation
   FAccTs GmbH                                   : IRC, NEB, NEB-TS, DLPNO-Multilevel, CI-OPT
                                                   MM, QMMM, 2- and 3-layer-ONIOM, Crystal-QMMM,
                                                   LR-CPCM, SF, NACMEs, symmetry and pop. for TD-DFT,
                                                   nearIR, NL-DFT gradient (VV10), updates on ESD,
                                                   ML-optimized integration grids, MBIS, APM,
                                                   GOAT, DOCKER, SOLVATOR, interface openCOSMO-RS
   S Lehtola, MJT Oliveira, MAL Marques          : LibXC Library
   Liviu Ungur et al                             : ANISO software


 Your calculation uses the libint2 library for the computation of 2-el integrals
 For citations please refer to: http://libint.valeyev.net

 Your ORCA version has been built with support for libXC version: 6.2.2
 For citations please refer to: https://libxc.gitlab.io

 This ORCA versions uses:
   CBLAS   interface :  Fast vector & matrix operations
   LAPACKE interface :  Fast linear algebra routines
   SCALAPACK package :  Parallel linear algebra routines
   Shared memory     :  Shared parallel matrices
   BLAS/LAPACK       :  OpenBLAS 0.3.27  USE64BITINT DYNAMIC_ARCH NO_AFFINITY SkylakeX SINGLE_THREADED
        Core in use  :  SkylakeX
   Copyright (c) 2011-2014, The OpenBLAS Project


NOTE: MaxCore=1000 MB was set to SCF,MP2,MDCI,CIPSI,MRCI and CIS
      => If you want to overwrite this, your respective input block should be placed after the MaxCore statement
Your calculation utilizes the atom-pairwise dispersion correction
with the zero-damping scheme (D30)


XCFun DFT library Copyright 2009-2010 Ulf Ekstrom and contributors.
See http://admol.org/xcfun for more information.
This is free software; see the source code for copying conditions.
There is ABSOLUTELY NO WARRANTY; not even for MERCHANTABILITY or FITNESS FOR A PARTICULAR PURPOSE.
For details see the documentation.
Scientific users of this library should cite U. Ekstrom, L. Visscher, R. Bast, A. J. Thorvaldsen and K. Ruud;
J.Chem.Theor.Comp. 2010, DOI: 10.1021/ct100117s
XCFun Version 0.99 

================================================================================

----- Orbital basis set information -----
Your calculation utilizes the basis: def2-TZVP
   F. Weigend and R. Ahlrichs, Phys. Chem. Chem. Phys. 7, 3297 (2005).

----- AuxJ basis set information -----
Your calculation utilizes the auxiliary basis: def2/J
   F. Weigend, Phys. Chem. Chem. Phys. 8, 1057 (2006).

================================================================================
                                        WARNINGS
                       Please study these warnings very carefully!
================================================================================


WARNING: your system is open-shell and RHF/RKS was chosen
  ===> : WILL SWITCH to UHF/UKS


================================================================================
                                       INPUT FILE
================================================================================
NAME = PreTS_SFFWPZQAGJSCLM-UHFFFAOYSA-N.inp
|  1> ! wB97X-D3 def2-TZVP def2/J RIJCOSX optTS freq CPCM(benzene) tightSCF DEFGRID3 noautostart miniprint nopop 
|  2> 
|  3> %geom
|  4> MaxIter 200
|  5> Convergence tight
|  6> Calc_Hess true
|  7> Recalc_Hess 3 
|  8> end
|  9> 
| 10> %maxcore  1000 
| 11> 
| 12> %pal nprocs   16 end
| 13> 
| 14> *xyz 0 2 
| 15> C     -4.727458   -0.500827    1.371865
| 16> C     -3.972600   -0.558898    0.091911
| 17> O     -2.616869   -0.559462    0.278137
| 18> C     -1.847754   -0.848956   -0.878256
| 19> C     -0.380589   -0.854752   -0.508708
| 20> C      0.135111    0.498609   -0.031944
| 21> C      1.619093    0.472955    0.309283
| 22> H     -5.794809   -0.405743    1.169305
| 23> H     -4.571542   -1.401549    1.976272
| 24> H     -4.413866    0.360725    1.966842
| 25> H     -4.319594   -1.266062   -0.663826
| 26> H     -2.153460   -1.824412   -1.276895
| 27> H     -2.044179   -0.094158   -1.649232
| 28> H      0.185051   -1.176211   -1.389568
| 29> H     -0.212808   -1.610950    0.265246
| 30> H     -0.053047    1.247060   -0.809456
| 31> H     -0.439952    0.812747    0.842656
| 32> H      1.826633   -0.254900    1.097853
| 33> H      1.965802    1.447690    0.657427
| 34> H      2.220053    0.196843   -0.561153
| 35> C     -4.460712    1.374966   -0.940040
| 36> C     -5.772870    1.702983   -0.838411
| 37> O     -6.675688    1.260572   -1.756020
| 38> C     -8.041565    1.470117   -1.427191
| 39> C     -8.560573    0.441854   -0.435590
| 40> C    -10.015191    0.670945   -0.030013
| 41> C    -11.017808    0.504688   -1.167551
| 42> H     -4.087621    0.991966   -1.882003
| 43> H     -3.753536    1.884858   -0.299082
| 44> H     -6.181178    2.254205    0.003901
| 45> H     -8.578783    1.410411   -2.374148
| 46> H     -8.173105    2.485084   -1.030681
| 47> H     -7.930423    0.471809    0.458356
| 48> H     -8.443941   -0.555898   -0.870917
| 49> H    -10.114964    1.671144    0.405227
| 50> H    -10.263073   -0.032124    0.769576
| 51> H    -10.881238    1.257231   -1.946871
| 52> H    -10.918610   -0.478524   -1.634866
| 53> H    -12.041747    0.596967   -0.801113
| 54> *
| 55> 
| 56> 
| 57>                          ****END OF INPUT****
================================================================================

                       *****************************
                       * Geometry Optimization Run *
                       *****************************

Geometry optimization settings:
Update method            Update   .... Bofill
Choice of coordinates    CoordSys .... (2022) Redundant Internals
Initial Hessian          InHess   .... Almloef's Model
Max. no of cycles        MaxIter  .... 200

Convergence Tolerances:
Energy Change            TolE     ....  1.0000e-06 Eh
Max. Gradient            TolMAXG  ....  1.0000e-04 Eh/bohr
RMS Gradient             TolRMSG  ....  3.0000e-05 Eh/bohr
Max. Displacement        TolMAXD  ....  1.0000e-03 bohr
RMS Displacement         TolRMSD  ....  6.0000e-04 bohr
Strict Convergence                .... False

------------------------------------------------------------------------------
                        ORCA OPTIMIZATION COORDINATE SETUP
------------------------------------------------------------------------------

The optimization will be done in redundant internal coordinates (2022)
Making redundant internal coordinates   ...  (2022 redundants) done
Following TS mode number                ...     0
Evaluating the initial hessian          ...  (Is done on the fly) done
Evaluating the coordinates              ...  done
Calculating the B-matrix                .... done
Calculating the G-matrix                .... done
Diagonalizing the G-matrix              .... done
Small eigenvalue found = 2.335e-03
Small eigenvalue found = 5.651e-03
Small eigenvalue found = 7.961e-03
Small eigenvalue found = 1.543e-02
Small eigenvalue found = 1.853e-02
The first mode is                       ....   78
The number of degrees of freedom        ....  111

    -----------------------------------------------------------------
                    Redundant Internal Coordinates


    -----------------------------------------------------------------
         Definition                    Initial Value    d2E/dq (diagonal element)
    -----------------------------------------------------------------
      1. B(C   1,C   0)                  1.4871         0.000000   
      2. B(O   2,C   1)                  1.3685         0.000000   
      3. B(C   3,O   2)                  1.4187         0.000000   
      4. B(C   4,C   3)                  1.5130         0.000000   
      5. B(C   5,C   4)                  1.5247         0.000000   
      6. B(C   6,C   5)                  1.5229         0.000000   
      7. B(H   7,C   0)                  1.0906         0.000000   
      8. B(H   8,C   0)                  1.0959         0.000000   
      9. B(H   9,C   0)                  1.0930         0.000000   
     10. B(H  10,C   1)                  1.0916         0.000000   
     11. B(H  11,C   3)                  1.0972         0.000000   
     12. B(H  12,C   3)                  1.0967         0.000000   
     13. B(H  13,C   4)                  1.0951         0.000000   
     14. B(H  14,C   4)                  1.0950         0.000000   
     15. B(H  15,C   5)                  1.0955         0.000000   
     16. B(H  16,C   5)                  1.0928         0.000000   
     17. B(H  17,C   6)                  1.0930         0.000000   
     18. B(H  18,C   6)                  1.0916         0.000000   
     19. B(H  19,C   6)                  1.0932         0.000000   
     20. B(C  20,H  10)                  2.6592         0.000000   
     21. B(C  20,C   1)                  2.2457         0.000000   
     22. B(C  20,H  12)                  2.9156         0.000000   
     23. B(C  21,C  20)                  1.3563         0.000000   
     24. B(C  21,H   7)                  2.9117         0.000000   
     25. B(O  22,C  21)                  1.3612         0.000000   
     26. B(C  23,O  22)                  1.4204         0.000000   
     27. B(C  24,C  23)                  1.5199         0.000000   
     28. B(C  25,C  24)                  1.5274         0.000000   
     29. B(C  26,C  25)                  1.5254         0.000000   
     30. B(H  27,C  20)                  1.0831         0.000000   
     31. B(H  27,H  10)                  2.5761         0.000000   
     32. B(H  27,C   1)                  2.5129         0.000000   
     33. B(H  27,H  12)                  2.3258         0.000000   
     34. B(H  28,C  20)                  1.0821         0.000000   
     35. B(H  28,H   9)                  2.8095         0.000000   
     36. B(H  28,O   2)                  2.7568         0.000000   
     37. B(H  28,C   1)                  2.4845         0.000000   
     38. B(H  29,C  21)                  1.0863         0.000000   
     39. B(H  30,C  23)                  1.0904         0.000000   
     40. B(H  31,C  23)                  1.0976         0.000000   
     41. B(H  32,C  24)                  1.0941         0.000000   
     42. B(H  32,H   7)                  2.4159         0.000000   
     43. B(H  33,C  24)                  1.0948         0.000000   
     44. B(H  34,C  25)                  1.0953         0.000000   
     45. B(H  35,C  25)                  1.0932         0.000000   
     46. B(H  36,C  26)                  1.0919         0.000000   
     47. B(H  37,C  26)                  1.0931         0.000000   
     48. B(H  38,C  26)                  1.0914         0.000000   
     49. A(C   1,C   0,H   9)          110.7124         0.000000   
     50. A(H   7,C   0,H   9)          108.2517         0.000000   
     51. A(H   7,C   0,H   8)          108.2615         0.000000   
     52. A(C   1,C   0,H   7)          109.8976         0.000000   
     53. A(H   8,C   0,H   9)          107.8687         0.000000   
     54. A(C   1,C   0,H   8)          111.7398         0.000000   
     55. A(C   0,C   1,H  10)          117.3754         0.000000   
     56. A(C   0,C   1,C  20)          104.5699         0.000000   
     57. A(O   2,C   1,C  20)          106.1543         0.000000   
     58. A(O   2,C   1,H  10)          114.1333         0.000000   
     59. A(H  10,C   1,C  20)           99.8249         0.000000   
     60. A(C   0,C   1,O   2)          112.6915         0.000000   
     61. A(C   1,O   2,C   3)          115.2302         0.000000   
     62. A(C   4,C   3,H  11)          110.8249         0.000000   
     63. A(C   4,C   3,H  12)          110.3668         0.000000   
     64. A(O   2,C   3,H  11)          109.0575         0.000000   
     65. A(O   2,C   3,C   4)          109.1114         0.000000   
     66. A(O   2,C   3,H  12)          109.6027         0.000000   
     67. A(H  11,C   3,H  12)          107.8521         0.000000   
     68. A(H  13,C   4,H  14)          106.6592         0.000000   
     69. A(C   5,C   4,H  14)          109.8855         0.000000   
     70. A(C   5,C   4,H  13)          109.7168         0.000000   
     71. A(C   3,C   4,H  13)          107.7905         0.000000   
     72. A(C   3,C   4,C   5)          113.6374         0.000000   
     73. A(C   3,C   4,H  14)          108.8971         0.000000   
     74. A(H  15,C   5,H  16)          106.3338         0.000000   
     75. A(C   6,C   5,H  16)          109.7721         0.000000   
     76. A(C   4,C   5,H  16)          109.1115         0.000000   
     77. A(C   6,C   5,H  15)          109.7488         0.000000   
     78. A(C   4,C   5,H  15)          109.0504         0.000000   
     79. A(C   4,C   5,C   6)          112.6240         0.000000   
     80. A(H  17,C   6,H  18)          107.7116         0.000000   
     81. A(C   5,C   6,H  18)          111.4644         0.000000   
     82. A(C   5,C   6,H  17)          110.9707         0.000000   
     83. A(H  18,C   6,H  19)          107.7513         0.000000   
     84. A(H  17,C   6,H  19)          107.5706         0.000000   
     85. A(C   5,C   6,H  19)          111.1939         0.000000   
     86. A(H  27,C  20,H  28)          117.1707         0.000000   
     87. A(C  21,C  20,H  28)          118.2876         0.000000   
     88. A(C  21,C  20,H  27)          118.9411         0.000000   
     89. A(C   1,C  20,H  28)           89.5153         0.000000   
     90. A(C   1,C  20,H  27)           91.1609         0.000000   
     91. A(C   1,C  20,C  21)          112.5881         0.000000   
     92. A(O  22,C  21,H  29)          115.9980         0.000000   
     93. A(C  20,C  21,H  29)          122.9863         0.000000   
     94. A(C  20,C  21,O  22)          120.8330         0.000000   
     95. A(C  21,O  22,C  23)          115.7074         0.000000   
     96. A(H  30,C  23,H  31)          107.7782         0.000000   
     97. A(C  24,C  23,H  31)          110.4267         0.000000   
     98. A(O  22,C  23,H  31)          109.5901         0.000000   
     99. A(C  24,C  23,H  30)          111.1817         0.000000   
    100. A(O  22,C  23,H  30)          105.3456         0.000000   
    101. A(O  22,C  23,C  24)          112.3087         0.000000   
    102. A(H  32,C  24,H  33)          106.7664         0.000000   
    103. A(C  25,C  24,H  33)          110.1045         0.000000   
    104. A(C  23,C  24,H  33)          108.7094         0.000000   
    105. A(C  25,C  24,H  32)          109.1134         0.000000   
    106. A(C  23,C  24,H  32)          108.5338         0.000000   
    107. A(C  23,C  24,C  25)          113.3899         0.000000   
    108. A(H  34,C  25,H  35)          106.0202         0.000000   
    109. A(C  26,C  25,H  35)          109.0447         0.000000   
    110. A(C  24,C  25,H  35)          108.2825         0.000000   
    111. A(C  26,C  25,H  34)          109.6316         0.000000   
    112. A(C  24,C  25,H  34)          109.2215         0.000000   
    113. A(C  24,C  25,C  26)          114.3054         0.000000   
    114. A(C  25,C  26,H  38)          110.9187         0.000000   
    115. A(H  36,C  26,H  37)          107.6634         0.000000   
    116. A(C  25,C  26,H  37)          110.9275         0.000000   
    117. A(C  25,C  26,H  36)          112.0187         0.000000   
    118. A(H  37,C  26,H  38)          107.7407         0.000000   
    119. A(H  36,C  26,H  38)          107.3787         0.000000   
    120. D(O   2,C   1,C   0,H   9)     55.0437         0.000000   
    121. D(C  20,C   1,C   0,H   8)    179.9317         0.000000   
    122. D(H  10,C   1,C   0,H   7)    -49.7322         0.000000   
    123. D(O   2,C   1,C   0,H   8)    -65.2167         0.000000   
    124. D(H  10,C   1,C   0,H   8)     70.4728         0.000000   
    125. D(H  10,C   1,C   0,H   9)   -169.2668         0.000000   
    126. D(C  20,C   1,C   0,H   7)     59.7267         0.000000   
    127. D(O   2,C   1,C   0,H   7)    174.5784         0.000000   
    128. D(C   3,O   2,C   1,C  20)    -76.7190         0.000000   
    129. D(C   3,O   2,C   1,H  10)     32.2127         0.000000   
    130. D(C   3,O   2,C   1,C   0)    169.3903         0.000000   
    131. D(H  11,C   3,O   2,C   1)    -57.1114         0.000000   
    132. D(C   4,C   3,O   2,C   1)   -178.2941         0.000000   
    133. D(H  12,C   3,O   2,C   1)     60.7491         0.000000   
    134. D(C   5,C   4,C   3,O   2)    -63.6714         0.000000   
    135. D(H  13,C   4,C   3,H  12)    -64.9987         0.000000   
    136. D(H  13,C   4,C   3,H  11)     54.4118         0.000000   
    137. D(H  13,C   4,C   3,O   2)    174.5120         0.000000   
    138. D(C   5,C   4,C   3,H  12)     56.8179         0.000000   
    139. D(C   5,C   4,C   3,H  11)    176.2284         0.000000   
    140. D(H  15,C   5,C   4,H  14)   -179.1534         0.000000   
    141. D(H  15,C   5,C   4,H  13)     63.8800         0.000000   
    142. D(H  15,C   5,C   4,C   3)    -56.8600         0.000000   
    143. D(C   6,C   5,C   4,H  14)     58.7610         0.000000   
    144. D(C   6,C   5,C   4,H  13)    -58.2057         0.000000   
    145. D(C   6,C   5,C   4,C   3)   -178.9456         0.000000   
    146. D(H  18,C   6,C   5,C   4)   -179.4383         0.000000   
    147. D(H  17,C   6,C   5,H  15)    178.9236         0.000000   
    148. D(H  17,C   6,C   5,C   4)    -59.3861         0.000000   
    149. D(H  18,C   6,C   5,H  15)     58.8713         0.000000   
    150. D(H  17,C   6,C   5,H  16)     62.3989         0.000000   
    151. D(H  18,C   6,C   5,H  16)    -57.6533         0.000000   
    152. D(H  28,C  20,C   1,H  10)   -159.7702         0.000000   
    153. D(H  28,C  20,C   1,O   2)    -40.9432         0.000000   
    154. D(H  28,C  20,C   1,C   0)     78.4146         0.000000   
    155. D(H  27,C  20,C   1,H  10)    -42.6035         0.000000   
    156. D(H  27,C  20,C   1,O   2)     76.2235         0.000000   
    157. D(H  27,C  20,C   1,C   0)   -164.4187         0.000000   
    158. D(C  21,C  20,C   1,H  10)     79.5813         0.000000   
    159. D(C  21,C  20,C   1,O   2)   -161.5917         0.000000   
    160. D(C  21,C  20,C   1,C   0)    -42.2339         0.000000   
    161. D(H  29,C  21,C  20,H  28)    -15.7882         0.000000   
    162. D(H  29,C  21,C  20,H  27)   -168.6813         0.000000   
    163. D(O  22,C  21,C  20,C   1)    -88.3510         0.000000   
    164. D(O  22,C  21,C  20,H  28)    169.3226         0.000000   
    165. D(H  29,C  21,C  20,C   1)     86.5382         0.000000   
    166. D(O  22,C  21,C  20,H  27)     16.4295         0.000000   
    167. D(C  23,O  22,C  21,H  29)     -5.6365         0.000000   
    168. D(C  23,O  22,C  21,C  20)    169.5948         0.000000   
    169. D(H  31,C  23,O  22,C  21)     44.0564         0.000000   
    170. D(H  30,C  23,O  22,C  21)    159.7616         0.000000   
    171. D(C  24,C  23,O  22,C  21)    -79.0672         0.000000   
    172. D(H  32,C  24,C  23,H  31)    -65.9294         0.000000   
    173. D(H  32,C  24,C  23,H  30)    174.4834         0.000000   
    174. D(H  32,C  24,C  23,O  22)     56.7231         0.000000   
    175. D(C  25,C  24,C  23,H  31)     55.4884         0.000000   
    176. D(C  25,C  24,C  23,H  30)    -64.0987         0.000000   
    177. D(C  25,C  24,C  23,O  22)    178.1410         0.000000   
    178. D(H  34,C  25,C  24,H  32)     63.0042         0.000000   
    179. D(H  34,C  25,C  24,C  23)    -58.0881         0.000000   
    180. D(C  26,C  25,C  24,H  33)    -56.9051         0.000000   
    181. D(C  26,C  25,C  24,H  32)   -173.7745         0.000000   
    182. D(C  26,C  25,C  24,C  23)     65.1332         0.000000   
    183. D(H  34,C  25,C  24,H  33)    179.8736         0.000000   
    184. D(H  37,C  26,C  25,H  35)    -65.8123         0.000000   
    185. D(H  37,C  26,C  25,H  34)    178.5227         0.000000   
    186. D(H  37,C  26,C  25,C  24)     55.5231         0.000000   
    187. D(H  36,C  26,C  25,H  35)    173.8522         0.000000   
    188. D(H  36,C  26,C  25,H  34)     58.1872         0.000000   
    189. D(H  36,C  26,C  25,C  24)    -64.8124         0.000000   
    -----------------------------------------------------------------

Number of atoms                         .... 39
Number of degrees of freedom            .... 189


         *************************************************************
         *                GEOMETRY OPTIMIZATION CYCLE   1            *
         *************************************************************
---------------------------------
CARTESIAN COORDINATES (ANGSTROEM)
---------------------------------
  C     -4.727458   -0.500827    1.371865
  C     -3.972600   -0.558898    0.091911
  O     -2.616869   -0.559462    0.278137
  C     -1.847754   -0.848956   -0.878256
  C     -0.380589   -0.854752   -0.508708
  C      0.135111    0.498609   -0.031944
  C      1.619093    0.472955    0.309283
  H     -5.794809   -0.405743    1.169305
  H     -4.571542   -1.401549    1.976272
  H     -4.413866    0.360725    1.966842
  H     -4.319594   -1.266062   -0.663826
  H     -2.153460   -1.824412   -1.276895
  H     -2.044179   -0.094158   -1.649232
  H      0.185051   -1.176211   -1.389568
  H     -0.212808   -1.610950    0.265246
  H     -0.053047    1.247060   -0.809456
  H     -0.439952    0.812747    0.842656
  H      1.826633   -0.254900    1.097853
  H      1.965802    1.447690    0.657427
  H      2.220053    0.196843   -0.561153
  C     -4.460712    1.374966   -0.940040
  C     -5.772870    1.702983   -0.838411
  O     -6.675688    1.260572   -1.756020
  C     -8.041565    1.470117   -1.427191
  C     -8.560573    0.441854   -0.435590
  C    -10.015191    0.670945   -0.030013
  C    -11.017808    0.504688   -1.167551
  H     -4.087621    0.991966   -1.882003
  H     -3.753536    1.884858   -0.299082
  H     -6.181178    2.254205    0.003901
  H     -8.578783    1.410411   -2.374148
  H     -8.173105    2.485084   -1.030681
  H     -7.930423    0.471809    0.458356
  H     -8.443941   -0.555898   -0.870917
  H    -10.114964    1.671144    0.405227
  H    -10.263073   -0.032124    0.769576
  H    -10.881238    1.257231   -1.946871
  H    -10.918610   -0.478524   -1.634866
  H    -12.041747    0.596967   -0.801113

----------------------------
CARTESIAN COORDINATES (A.U.)
----------------------------
  NO LB      ZA    FRAG     MASS         X           Y           Z
   0 C     6.0000    0    12.011   -8.933601   -0.946426    2.592449
   1 C     6.0000    0    12.011   -7.507126   -1.056164    0.173687
   2 O     8.0000    0    15.999   -4.945166   -1.057230    0.525603
   3 C     6.0000    0    12.011   -3.491749   -1.604294   -1.659663
   4 C     6.0000    0    12.011   -0.719209   -1.615247   -0.961319
   5 C     6.0000    0    12.011    0.255323    0.942234   -0.060365
   6 C     6.0000    0    12.011    3.059642    0.893755    0.584460
   7 H     1.0000    0     1.008  -10.950602   -0.766743    2.209666
   8 H     1.0000    0     1.008   -8.638962   -2.648544    3.734613
   9 H     1.0000    0     1.008   -8.340998    0.681671    3.716793
  10 H     1.0000    0     1.008   -8.162850   -2.392510   -1.254449
  11 H     1.0000    0     1.008   -4.069450   -3.447639   -2.412982
  12 H     1.0000    0     1.008   -3.862938   -0.177933   -3.116597
  13 H     1.0000    0     1.008    0.349696   -2.222717   -2.625903
  14 H     1.0000    0     1.008   -0.402149   -3.044254    0.501242
  15 H     1.0000    0     1.008   -0.100244    2.356602   -1.529650
  16 H     1.0000    0     1.008   -0.831389    1.535869    1.592389
  17 H     1.0000    0     1.008    3.451836   -0.481691    2.074642
  18 H     1.0000    0     1.008    3.714827    2.735738    1.242357
  19 H     1.0000    0     1.008    4.195292    0.371979   -1.060425
  20 C     6.0000    0    12.011   -8.429524    2.598309   -1.776418
  21 C     6.0000    0    12.011  -10.909143    3.218171   -1.584367
  22 O     8.0000    0    15.999  -12.615222    2.382136   -3.318397
  23 C     6.0000    0    12.011  -15.196356    2.778119   -2.697000
  24 C     6.0000    0    12.011  -16.177139    0.834983   -0.823146
  25 C     6.0000    0    12.011  -18.925968    1.267902   -0.056716
  26 C     6.0000    0    12.011  -20.820640    0.953722   -2.206352
  27 H     1.0000    0     1.008   -7.724484    1.874544   -3.556470
  28 H     1.0000    0     1.008   -7.093155    3.561865   -0.565183
  29 H     1.0000    0     1.008  -11.680734    4.259830    0.007372
  30 H     1.0000    0     1.008  -16.211550    2.665291   -4.486490
  31 H     1.0000    0     1.008  -15.444930    4.696128   -1.947705
  32 H     1.0000    0     1.008  -14.986328    0.891590    0.866167
  33 H     1.0000    0     1.008  -15.956736   -1.050495   -1.645795
  34 H     1.0000    0     1.008  -19.114512    3.158004    0.765768
  35 H     1.0000    0     1.008  -19.394397   -0.060706    1.454288
  36 H     1.0000    0     1.008  -20.562560    2.375822   -3.679053
  37 H     1.0000    0     1.008  -20.633183   -0.904279   -3.089449
  38 H     1.0000    0     1.008  -22.755604    1.128104   -1.513884



           ************************************************************
           *        Program running with 16 parallel MPI-processes    *
           *              working on a common directory               *
           ************************************************************
------------------------------------------------------------------------------
                   ___                                                        
                  /   \      - P O W E R E D   B Y -                         
                 /     \                                                     
                 |  |  |   _    _      __       _____    __    __             
                 |  |  |  | |  | |    /  \     |  _  \  |  |  /  |          
                  \  \/   | |  | |   /    \    | | | |  |  | /  /          
                 / \  \   | |__| |  /  /\  \   | |_| |  |  |/  /          
                |  |  |   |  __  | /  /__\  \  |    /   |      \           
                |  |  |   | |  | | |   __   |  |    \   |  |\   \          
                \     /   | |  | | |  |  |  |  | |\  \  |  | \   \       
                 \___/    |_|  |_| |__|  |__|  |_| \__\ |__|  \__/        
                                                                              
                      - O R C A' S   B I G   F R I E N D -                    
                                      &                                       
                       - I N T E G R A L  F E E D E R -                       
                                                                              
 v1 FN, 2020, v2 2021, v3 2022-2024                                           
------------------------------------------------------------------------------


----------------------
SHARK INTEGRAL PACKAGE
----------------------

Number of atoms                             ...     39
Number of basis functions                   ...    584
Number of shells                            ...    254
Maximum angular momentum                    ...      3
Integral batch strategy                     ... SHARK/LIBINT Hybrid
RI-J (if used) integral strategy            ... SPLIT-RIJ (Revised 2003 algorithm where possible)
Printlevel                                  ...      1
Contraction scheme used                     ... SEGMENTED contraction
Prescreening option                         ... SCHWARTZ
   Thresh                                   ... 2.500e-11
   Tcut                                     ... 2.500e-12
   Tpresel                                  ... 2.500e-12 
Coulomb Range Separation                    ... NOT USED
Exchange Range Separation                   ... Long Range
   Mu parameter                             ... 2.500e-01
   Scaling (regular/separated)              ... 1.957e-01 8.043e-01
Multipole approximations                    ... NOT USED
Finite Nucleus Model                        ... NOT USED
CABS basis                                  ... NOT available
Auxiliary Coulomb fitting basis             ... AVAILABLE
   # of basis functions in Aux-J            ...    961
   # of shells in Aux-J                     ...    335
   Maximum angular momentum in Aux-J        ...      4
Auxiliary J/K fitting basis                 ... NOT available
Auxiliary Correlation fitting basis         ... NOT available
Auxiliary 'external' fitting basis          ... NOT available

Checking pre-screening integrals            ... done (  0.0 sec) Dimension = 254
Check shell pair data                       ... done (  0.0 sec)
Shell pair information
Shell pair cut-off parameter TPreSel        ...   2.5e-12
Total number of shell pairs                 ...     32385
Shell pairs after pre-screening             ...     21641
Total number of primitive shell pairs       ...     93048
Primitive shell pairs kept                  ...     43535
          la=0 lb=0:   7079 shell pairs
          la=1 lb=0:   6599 shell pairs
          la=1 lb=1:   1591 shell pairs
          la=2 lb=0:   2656 shell pairs
          la=2 lb=1:   1260 shell pairs
          la=2 lb=2:    268 shell pairs
          la=3 lb=0:   1275 shell pairs
          la=3 lb=1:    610 shell pairs
          la=3 lb=2:    237 shell pairs
          la=3 lb=3:     66 shell pairs

Calculating one electron integrals          ... done (  0.0 sec)
Calculating RI/J V-Matrix + Cholesky decomp.... done (  0.1 sec)
Calculating Nuclear repulsion               ... done (  0.0 sec) ENN=    902.888781737203 Eh

Diagonalization of the overlap matrix:
Smallest eigenvalue                        ... 1.121e-04
Time for diagonalization                   ...    0.048 sec
Threshold for overlap eigenvalues          ... 1.000e-07
Number of eigenvalues below threshold      ... 0
Time for construction of square roots      ...    0.021 sec
Total time needed                          ...    0.072 sec

-------------------
DFT GRID GENERATION
-------------------

General Integration Accuracy     IntAcc      ... 4.959
Radial Grid Type                 RadialGrid  ... OptM3 with GC (2021)
Angular Grid (max. ang.)         AngularGrid ... 6 (Lebedev-590)
Angular grid pruning method      GridPruning ... 4 (adaptive)
Weight generation scheme         WeightScheme... mBecke (2022)
Basis function cutoff            BFCut       ... 1.0000e-11
Integration weight cutoff        WCut        ... 1.0000e-14
Partially contracted basis set               ... off
Rotationally invariant grid construction     ... off
Angular grids for H and He will be reduced by one unit

Total number of grid points                  ...   413696
Total number of batches                      ...     6486
Average number of points per batch           ...       63
Average number of grid points per atom       ...    10608

--------------------
COSX GRID GENERATION
--------------------

GRIDX 1
-------
General Integration Accuracy     IntAcc      ... 4.020
Radial Grid Type                 RadialGrid  ... OptM3 with GC (2021)
Angular Grid (max. ang.)         AngularGrid ... 2 (Lebedev-110)
Angular grid pruning method      GridPruning ... 4 (adaptive)
Weight generation scheme         WeightScheme... mBecke (2022)
Basis function cutoff            BFCut       ... 1.0000e-11
Integration weight cutoff        WCut        ... 1.0000e-14
Partially contracted basis set               ... on
Rotationally invariant grid construction     ... off
Angular grids for H and He will be reduced by one unit

Total number of grid points                  ...    43382
Total number of batches                      ...      359
Average number of points per batch           ...      120
Average number of grid points per atom       ...     1112
UseSFitting                                  ... on

GRIDX 2
-------
General Integration Accuracy     IntAcc      ... 4.338
Radial Grid Type                 RadialGrid  ... OptM3 with GC (2021)
Angular Grid (max. ang.)         AngularGrid ... 3 (Lebedev-194)
Angular grid pruning method      GridPruning ... 4 (adaptive)
Weight generation scheme         WeightScheme... mBecke (2022)
Basis function cutoff            BFCut       ... 1.0000e-11
Integration weight cutoff        WCut        ... 1.0000e-14
Partially contracted basis set               ... on
Rotationally invariant grid construction     ... off
Angular grids for H and He will be reduced by one unit

Total number of grid points                  ...    94271
Total number of batches                      ...      754
Average number of points per batch           ...      125
Average number of grid points per atom       ...     2417
UseSFitting                                  ... on

GRIDX 3
-------
General Integration Accuracy     IntAcc      ... 4.871
Radial Grid Type                 RadialGrid  ... OptM3 with GC (2021)
Angular Grid (max. ang.)         AngularGrid ... 4 (Lebedev-302)
Angular grid pruning method      GridPruning ... 4 (adaptive)
Weight generation scheme         WeightScheme... mBecke (2022)
Basis function cutoff            BFCut       ... 1.0000e-11
Integration weight cutoff        WCut        ... 1.0000e-14
Partially contracted basis set               ... on
Rotationally invariant grid construction     ... off
Angular grids for H and He will be reduced by one unit

Total number of grid points                  ...   185499
Total number of batches                      ...     1469
Average number of points per batch           ...      126
Average number of grid points per atom       ...     4756
UseSFitting                                  ... on
Initializing property integral containers    ... done (  0.0 sec)

SHARK setup successfully completed in   5.5 seconds

Maximum memory used throughout the entire STARTUP-calculation: 100.6 MB


           ************************************************************
           *        Program running with 16 parallel MPI-processes    *
           *              working on a common directory               *
           ************************************************************
Loading Hartree-Fock densities                     ... done
Calculating cut-offs                               ... done
Initializing the effective Hamiltonian             ... done
Setting up the integral package (SHARK)            ... done
Starting the Coulomb interaction                   ... done (   0.1 sec)
Making the grid                                    ... done (   0.2 sec)
Mapping shells                                     ... done
Starting the XC term evaluation                    ... done (   0.1 sec)
  promolecular density results
     # of electrons  =    112.994669588
     EX              =    -85.044088613
     EC              =     -3.695574134
     EX+EC           =    -88.739662746
Transforming the Hamiltonian                       ... done (   0.0 sec)
Diagonalizing the Hamiltonian                      ... done (   0.1 sec)
Back transforming the eigenvectors                 ... done (   0.0 sec)
Now organizing SCF variables                       ... done
             **** ENERGY FILE WAS UPDATED (PreTS_SFFWPZQAGJSCLM-UHFFFAOYSA-N.en.tmp) ****
Finished Guess after   1.2 sec
Maximum memory used throughout the entire GUESS-calculation: 38.4 MB


           ************************************************************
           *        Program running with 16 parallel MPI-processes    *
           *              working on a common directory               *
           ************************************************************
--------------------
CPCM SOLVATION MODEL
--------------------
CPCM parameters:
  Epsilon                                         ...       2.2790
  Refrac                                          ...       1.5011
  Rsolv                                           ...       1.3000
  Surface type                                    ... GAUSSIAN VDW
  Discretization scheme                           ... Constant charge density
    Threshold for H atoms                         ...       5.0000 (charges/Ang^2)
    Threshold for non-H atoms                     ...       5.0000 (charges/Ang^2)
  Epsilon function type                           ...         CPCM
Solvent:                                          ... BENZENE
Radii:
  Scheme                                          ... Element-dependent radii
  Radius for C  used is    3.8550 Bohr (=   2.0400 Ang.)
  Radius for O  used is    3.4469 Bohr (=   1.8240 Ang.)
  Radius for H  used is    2.4944 Bohr (=   1.3200 Ang.)
Calculating surface                               ...        done! (  0.0s)
Cavity surface points                             ...         3298
Cavity Volume                                     ...    1982.4704
Cavity Surface-area                               ...    1115.4074
Calculating surface distance matrix               ...        done! (  0.1s)
Performing Cholesky decomposition & store         ...        done! (  0.2s)
Overall time for CPCM initialization              ...                 0.3s

----------------------------------------D-I-I-S--------------------------------------------
Iteration    Energy (Eh)           Delta-E    RMSDP     MaxDP     DIISErr   Damp  Time(sec)
-------------------------------------------------------------------------------------------
               ***  Starting incremental Fock matrix formation  ***
    1    -622.2913941829698388     0.00e+00  3.84e-04  1.93e-02  9.21e-02  0.700  13.5
    2    -622.4668726912221928    -1.75e-01  3.13e-04  1.76e-02  5.55e-02  0.700   6.5
                               ***Turning on AO-DIIS***
    3    -622.5589868884557063    -9.21e-02  1.70e-04  8.45e-03  2.92e-02  0.700   6.4
    4    -622.6139119256059757    -5.49e-02  3.65e-04  1.54e-02  1.92e-02  0.000   6.0
    5    -622.7322105752604102    -1.18e-01  5.38e-05  2.78e-03  4.56e-03  0.000   6.2
    6    -622.7329992510696002    -7.89e-04  3.78e-05  2.12e-03  3.54e-03  0.000   5.7
                              *** Initializing SOSCF ***
---------------------------------------S-O-S-C-F--------------------------------------
Iteration    Energy (Eh)           Delta-E    RMSDP     MaxDP     MaxGrad    Time(sec)
--------------------------------------------------------------------------------------
    7    -622.7334054824870009    -4.06e-04  3.36e-05  1.97e-03  2.34e-03     5.5
               *** Restarting incremental Fock matrix formation ***
    8    -622.7336506773141309    -2.45e-04  2.44e-05  2.35e-03  1.97e-03    13.3
    9    -622.7337325418176306    -8.19e-05  4.21e-05  2.93e-03  9.85e-04     9.2
   10    -622.7337775967577045    -4.51e-05  1.16e-05  7.57e-04  2.97e-04     9.6
   11    -622.7337868106968699    -9.21e-06  2.04e-06  2.99e-04  1.01e-04     8.8
   12    -622.7337870326138045    -2.22e-07  1.10e-06  1.44e-04  4.36e-05     7.0
   13    -622.7337871303287784    -9.77e-08  6.11e-07  6.79e-05  3.46e-05     6.4
   14    -622.7337871631633561    -3.28e-08  5.54e-07  5.23e-05  1.39e-05     5.8
   15    -622.7337871846629014    -2.15e-08  2.63e-07  2.16e-05  6.57e-06     5.7
   16    -622.7337871840778689     5.85e-10  1.57e-07  1.15e-05  3.91e-06     5.0
                 **** Energy Check signals convergence ****

               *****************************************************
               *                     SUCCESS                       *
               *           SCF CONVERGED AFTER  16 CYCLES          *
               *****************************************************

Recomputing exchange energy using gridx3       ... done (   20.454 sec)
Old exchange energy                            :    -29.227694149 Eh
New exchange energy                            :    -29.227696333 Eh
Exchange energy change after final integration :     -0.000002184 Eh
Total energy after final integration           :   -622.733789368 Eh
             **** ENERGY FILE WAS UPDATED (PreTS_SFFWPZQAGJSCLM-UHFFFAOYSA-N.en.tmp) ****

----------------
TOTAL SCF ENERGY
----------------

Total Energy       :       -622.73378936804022 Eh          -16945.44790 eV

Components:
Nuclear Repulsion  :        902.88878173720252 Eh           24568.85281 eV
Electronic Energy  :      -1525.61732753006027 Eh          -41514.15802 eV
One Electron Energy:      -2635.01813205506505 Eh          -71702.48866 eV
Two Electron Energy:       1109.40080452500479 Eh           30188.33064 eV
CPCM Dielectric    :         -0.00524139122003 Eh              -0.14263 eV

Virial components:
Potential Energy   :      -1242.44834972358876 Eh          -33808.73840 eV
Kinetic Energy     :        619.71456035554854 Eh           16863.29050 eV
Virial Ratio       :          2.00487196720174

DFT components:
N(Alpha)           :       56.999983624909 electrons
N(Beta)            :       55.999983583023 electrons
N(Total)           :      112.999967207931 electrons
E(XC)              :      -62.401961075960 Eh       

CPCM Solvation Model Properties:
Surface-charge          :         -0.04015242983979
Corrected charge        :          0.00000000000000
Outlying charge corr.   :          0.00004969720270 Eh               0.00135 eV
Free-energy (cav+disp)  :  This term is not implemented in the current solvation scheme

---------------
SCF CONVERGENCE
---------------

  Last Energy change         ...   -5.8503e-10  Tolerance :   1.0000e-08
  Last MAX-Density change    ...    1.1534e-05  Tolerance :   1.0000e-07
  Last RMS-Density change    ...    1.5671e-07  Tolerance :   5.0000e-09
  Last DIIS Error            ...    2.3447e-03  Tolerance :   5.0000e-07
  Last Orbital Gradient      ...    3.9127e-06  Tolerance :   1.0000e-05
  Last Orbital Rotation      ...    1.2294e-05  Tolerance :   1.0000e-05


----------------------
UHF SPIN CONTAMINATION
----------------------

Warning: in a DFT calculation there is little theoretical justification to 
         calculate <S**2> as in Hartree-Fock theory. We will do it anyways
         but you should keep in mind that the values have only limited relevance

Expectation value of <S**2>     :     0.797809
Ideal value S*(S+1) for S=0.5   :     0.750000
Deviation                       :     0.047809

----------------
ORBITAL ENERGIES
----------------
                 SPIN UP ORBITALS
  NO   OCC          E(Eh)            E(eV) 
   0   1.0000     -19.250972      -523.8456 
   1   1.0000     -19.246908      -523.7350 
   2   1.0000     -10.321126      -280.8521 
   3   1.0000     -10.318022      -280.7676 
   4   1.0000     -10.317392      -280.7505 
   5   1.0000     -10.311047      -280.5779 
   6   1.0000     -10.272104      -279.5182 
   7   1.0000     -10.269073      -279.4357 
   8   1.0000     -10.267153      -279.3834 
   9   1.0000     -10.263841      -279.2933 
  10   1.0000     -10.261537      -279.2306 
  11   1.0000     -10.258948      -279.1602 
  12   1.0000     -10.257415      -279.1185 
  13   1.0000     -10.257243      -279.1138 
  14   1.0000      -1.173495       -31.9324 
  15   1.0000      -1.169787       -31.8315 
  16   1.0000      -0.920234       -25.0408 
  17   1.0000      -0.917653       -24.9706 
  18   1.0000      -0.878263       -23.8987 
  19   1.0000      -0.864921       -23.5357 
  20   1.0000      -0.827022       -22.5044 
  21   1.0000      -0.819816       -22.3083 
  22   1.0000      -0.757325       -20.6079 
  23   1.0000      -0.742648       -20.2085 
  24   1.0000      -0.708717       -19.2852 
  25   1.0000      -0.692395       -18.8410 
  26   1.0000      -0.684379       -18.6229 
  27   1.0000      -0.674322       -18.3492 
  28   1.0000      -0.612899       -16.6778 
  29   1.0000      -0.606649       -16.5078 
  30   1.0000      -0.586720       -15.9655 
  31   1.0000      -0.568667       -15.4742 
  32   1.0000      -0.557954       -15.1827 
  33   1.0000      -0.555896       -15.1267 
  34   1.0000      -0.546592       -14.8735 
  35   1.0000      -0.533448       -14.5159 
  36   1.0000      -0.527479       -14.3534 
  37   1.0000      -0.518532       -14.1100 
  38   1.0000      -0.505018       -13.7422 
  39   1.0000      -0.498007       -13.5515 
  40   1.0000      -0.484578       -13.1860 
  41   1.0000      -0.481546       -13.1035 
  42   1.0000      -0.470925       -12.8145 
  43   1.0000      -0.470851       -12.8125 
  44   1.0000      -0.465432       -12.6651 
  45   1.0000      -0.455964       -12.4074 
  46   1.0000      -0.435316       -11.8456 
  47   1.0000      -0.432588       -11.7713 
  48   1.0000      -0.429527       -11.6880 
  49   1.0000      -0.428051       -11.6479 
  50   1.0000      -0.422302       -11.4914 
  51   1.0000      -0.415816       -11.3149 
  52   1.0000      -0.412475       -11.2240 
  53   1.0000      -0.409593       -11.1456 
  54   1.0000      -0.398036       -10.8311 
  55   1.0000      -0.329587        -8.9685 
  56   1.0000      -0.218701        -5.9511 
  57   0.0000       0.116652         3.1743 
  58   0.0000       0.120656         3.2832 
  59   0.0000       0.125254         3.4083 
  60   0.0000       0.133454         3.6315 
  61   0.0000       0.136588         3.7167 
  62   0.0000       0.143074         3.8932 
  63   0.0000       0.147046         4.0013 
  64   0.0000       0.154210         4.1963 
  65   0.0000       0.161133         4.3847 
  66   0.0000       0.170372         4.6361 
  67   0.0000       0.177139         4.8202 

                 SPIN DOWN ORBITALS
  NO   OCC          E(Eh)            E(eV) 
   0   1.0000     -19.249090      -523.7944 
   1   1.0000     -19.244523      -523.6701 
   2   1.0000     -10.321178      -280.8535 
   3   1.0000     -10.318096      -280.7697 
   4   1.0000     -10.308966      -280.5212 
   5   1.0000     -10.306327      -280.4494 
   6   1.0000     -10.272111      -279.5183 
   7   1.0000     -10.269002      -279.4338 
   8   1.0000     -10.267158      -279.3836 
   9   1.0000     -10.263840      -279.2933 
  10   1.0000     -10.261533      -279.2305 
  11   1.0000     -10.259983      -279.1883 
  12   1.0000     -10.259284      -279.1693 
  13   1.0000     -10.257240      -279.1137 
  14   1.0000      -1.168050       -31.7843 
  15   1.0000      -1.162305       -31.6279 
  16   1.0000      -0.919272       -25.0147 
  17   1.0000      -0.915953       -24.9244 
  18   1.0000      -0.872887       -23.7525 
  19   1.0000      -0.859769       -23.3955 
  20   1.0000      -0.825858       -22.4727 
  21   1.0000      -0.818644       -22.2764 
  22   1.0000      -0.757518       -20.6131 
  23   1.0000      -0.741660       -20.1816 
  24   1.0000      -0.698446       -19.0057 
  25   1.0000      -0.690779       -18.7971 
  26   1.0000      -0.681306       -18.5393 
  27   1.0000      -0.669000       -18.2044 
  28   1.0000      -0.610008       -16.5992 
  29   1.0000      -0.601028       -16.3548 
  30   1.0000      -0.583073       -15.8662 
  31   1.0000      -0.563398       -15.3308 
  32   1.0000      -0.554960       -15.1012 
  33   1.0000      -0.552604       -15.0371 
  34   1.0000      -0.543425       -14.7874 
  35   1.0000      -0.532250       -14.4833 
  36   1.0000      -0.523446       -14.2437 
  37   1.0000      -0.508848       -13.8464 
  38   1.0000      -0.502347       -13.6696 
  39   1.0000      -0.495781       -13.4909 
  40   1.0000      -0.483729       -13.1629 
  41   1.0000      -0.480528       -13.0758 
  42   1.0000      -0.469068       -12.7640 
  43   1.0000      -0.468297       -12.7430 
  44   1.0000      -0.463990       -12.6258 
  45   1.0000      -0.452605       -12.3160 
  46   1.0000      -0.431641       -11.7456 
  47   1.0000      -0.429740       -11.6938 
  48   1.0000      -0.427159       -11.6236 
  49   1.0000      -0.426882       -11.6160 
  50   1.0000      -0.419075       -11.4036 
  51   1.0000      -0.411605       -11.2003 
  52   1.0000      -0.408917       -11.1272 
  53   1.0000      -0.407020       -11.0756 
  54   1.0000      -0.387715       -10.5503 
  55   1.0000      -0.308735        -8.4011 
  56   0.0000       0.048316         1.3147 
  57   0.0000       0.116908         3.1812 
  58   0.0000       0.122462         3.3324 
  59   0.0000       0.133353         3.6287 
  60   0.0000       0.136565         3.7161 
  61   0.0000       0.141857         3.8601 
  62   0.0000       0.144077         3.9205 
  63   0.0000       0.148000         4.0273 
  64   0.0000       0.158155         4.3036 
  65   0.0000       0.161564         4.3964 
  66   0.0000       0.171319         4.6618 
*Only the first 10 virtual orbitals were printed.
Total SCF time: 0 days 0 hours 2 min 22 sec 
Finished LeanSCF after 142.6 sec

Maximum memory used throughout the entire LEANSCF-calculation: 90.5 MB


           ************************************************************
           *        Program running with 16 parallel MPI-processes    *
           *              working on a common directory               *
           ************************************************************

------------------------------------------------------------------------------
                         ORCA PROPERTY INTEGRAL CALCULATIONS
------------------------------------------------------------------------------

GBWName                                   ... PreTS_SFFWPZQAGJSCLM-UHFFFAOYSA-N.gbw
Number of atoms                           ...     39
Number of basis functions                 ...    584
Max core memory                           ...   1000 MB

Dipole integrals                          ... YES
Quadrupole integrals                      ...  NO
Linear momentum integrals                 ...  NO
Angular momentum integrals                ...  NO
Higher moments length integrals           ...  NO
Higher moments velocity integrals         ...  NO
Kinetic energy integrals                  ...  NO
GIAO right hand sides                     ...  NO
GIAO dipole derivative integrals          ...  NO
SOC integrals                             ...  NO
EPR diamagnetic integrals (GIAO)          ...  NO
EPR gauge integrals                       ...  NO
Field gradient integrals                  ...  NO (   0 nuclei)
Spin-dipole/Fermi contact integrals       ...  NO (   0 nuclei)
Contact density integrals                 ...  NO (   0 nuclei)
Nucleus-orbit integrals                   ...  NO (   0 nuclei)
Geometric perturbations                   ...  NO (  39 nuclei)

Choice of electric origin   ... Center of mass
Position of electric origin ... ( -8.9539,  0.6739, -0.7992) 
Choice of magnetic origin   ... GIAO
Position of magnetic origin ... (  0.0000,  0.0000,  0.0000) 

Calculating integrals                     ... Electric Dipole (Length)     done (  0.0 sec)

Property integrals calculated in   0.0 sec

Maximum memory used throughout the entire PROPINT-calculation: 40.9 MB


-------------------------------------------------------------------------------
                          DFT DISPERSION CORRECTION                            
                                                                               
                              DFTD3 V3.1  Rev 1                                
                              USING zero damping                               
-------------------------------------------------------------------------------
-------------------------   ----------------
Dispersion correction           -0.014593008
-------------------------   ----------------


-------------------------   --------------------
FINAL SINGLE POINT ENERGY      -622.748382376296
-------------------------   --------------------



           ************************************************************
           *        Program running with 16 parallel MPI-processes    *
           *              working on a common directory               *
           ************************************************************
------------------------------------------------------------------------------
                         ORCA SCF GRADIENT CALCULATION
------------------------------------------------------------------------------

Nuc. rep. gradient        (SHARK) ... done (  0.0 sec)
HCore & Overlap gradient  (SHARK) ... done (  0.2 sec)
Split-RIJ-J gradient      (SHARK) ... done (  0.9 sec)
COSX-gradient                     ... done ( 24.8 sec)
XC gradient                       ... done (  6.8 sec)
CPCM gradient                     ... done (  1.1 sec)
Dispersion correction             ... done (  0.0 sec)

-------------------
DISPERSION GRADIENT
-------------------

   1   C   :    0.000046822   -0.000011146    0.000057634
   2   C   :    0.000072146    0.000031411   -0.000077113
   3   O   :    0.000045983   -0.000035848   -0.000042943
   4   C   :    0.000059674    0.000036816   -0.000017956
   5   C   :    0.000158130    0.000027128    0.000026911
   6   C   :    0.000070784   -0.000074301   -0.000016419
   7   C   :   -0.000010227   -0.000055525   -0.000026824
   8   H   :    0.000017570   -0.000046654    0.000075336
   9   H   :   -0.000010096   -0.000056748    0.000066242
  10   H   :    0.000037393   -0.000048753    0.000085390
  11   H   :    0.000151523    0.000023048    0.000053587
  12   H   :    0.000029957   -0.000025628    0.000056022
  13   H   :    0.000003883   -0.000008821    0.000094035
  14   H   :    0.000015917    0.000074862    0.000010046
  15   H   :    0.000026012    0.000086280   -0.000010236
  16   H   :    0.000154402   -0.000082739   -0.000008669
  17   H   :    0.000165137   -0.000087364   -0.000018703
  18   H   :   -0.000062976    0.000009316   -0.000030327
  19   H   :   -0.000036406    0.000017919   -0.000005632
  20   H   :   -0.000073042    0.000002205   -0.000002443
  21   C   :    0.000081457   -0.000131908    0.000033841
  22   C   :   -0.000128747   -0.000007266    0.000063401
  23   O   :   -0.000100981    0.000147772   -0.000064555
  24   C   :   -0.000151962    0.000051322    0.000032061
  25   C   :   -0.000146672    0.000098093   -0.000115085
  26   C   :   -0.000062813    0.000022414   -0.000104149
  27   C   :    0.000070031   -0.000008756    0.000007472
  28   H   :   -0.000024557   -0.000006319   -0.000043949
  29   H   :   -0.000080612    0.000074241    0.000020090
  30   H   :   -0.000062638    0.000043624   -0.000109237
  31   H   :   -0.000096556   -0.000056127    0.000044579
  32   H   :    0.000066466   -0.000082432    0.000058903
  33   H   :   -0.000053614    0.000119147   -0.000048737
  34   H   :   -0.000211169    0.000036098   -0.000052241
  35   H   :   -0.000006938   -0.000046002   -0.000096239
  36   H   :   -0.000026421   -0.000021985   -0.000077707
  37   H   :    0.000064664   -0.000003100    0.000053112
  38   H   :    0.000015559   -0.000002994    0.000072491
  39   H   :   -0.000007081   -0.000001284    0.000058010

Difference to translation invariance:
           :    0.0000000000   -0.0000000000   -0.0000000000

Difference to rotation invariance:
           :   -0.0000000000    0.0000000000    0.0000000000

Norm of the Dispersion gradient    ...    0.0007527224
RMS gradient                       ...    0.0000695892
MAX gradient                       ...    0.0002111692

------------------
CARTESIAN GRADIENT
------------------

   1   C   :   -0.000014599   -0.000095435   -0.000087079
   2   C   :    0.000038056    0.000077381    0.000000986
   3   O   :   -0.000071825    0.000051393   -0.000012189
   4   C   :    0.000161612   -0.000092622   -0.000139648
   5   C   :   -0.000078978   -0.000026901   -0.000034341
   6   C   :    0.000018215   -0.000001271    0.000029193
   7   C   :   -0.000055626    0.000094677    0.000015598
   8   H   :    0.000084309    0.000033410    0.000030252
   9   H   :    0.000012357    0.000054198   -0.000029032
  10   H   :   -0.000084599   -0.000005971    0.000003140
  11   H   :    0.000037775   -0.000009298    0.000091196
  12   H   :   -0.000167227    0.000064880    0.000112069
  13   H   :    0.000031300    0.000000011    0.000025142
  14   H   :    0.000019132    0.000062447    0.000050803
  15   H   :    0.000030188    0.000029467   -0.000048379
  16   H   :   -0.000003124   -0.000027271    0.000047608
  17   H   :    0.000001145   -0.000069949   -0.000044657
  18   H   :   -0.000058494   -0.000025558   -0.000082156
  19   H   :    0.000028059   -0.000070863    0.000010435
  20   H   :    0.000003480    0.000020889    0.000033331
  21   C   :   -0.000021103   -0.000003492    0.000031923
  22   C   :    0.000074811    0.000075851   -0.000113013
  23   O   :    0.000085865   -0.000052241    0.000119747
  24   C   :    0.000032142   -0.000102472   -0.000059344
  25   C   :    0.000013194    0.000041936    0.000050624
  26   C   :    0.000040714    0.000160499   -0.000126150
  27   C   :   -0.000139382   -0.000064592    0.000081487
  28   H   :    0.000038592    0.000001106    0.000056005
  29   H   :   -0.000080844    0.000047514   -0.000068497
  30   H   :   -0.000061133   -0.000132492   -0.000038623
  31   H   :    0.000067958    0.000034333    0.000044247
  32   H   :    0.000008571   -0.000048977    0.000030856
  33   H   :   -0.000117371   -0.000033010    0.000004670
  34   H   :   -0.000054639    0.000073700   -0.000015669
  35   H   :    0.000056906   -0.000055603    0.000017596
  36   H   :    0.000034842    0.000003303   -0.000073960
  37   H   :    0.000033566   -0.000025400    0.000033954
  38   H   :   -0.000014160    0.000041789    0.000018495
  39   H   :    0.000070319   -0.000025365    0.000033383

Difference to translation invariance:
           :    0.0000000000   -0.0000000000    0.0000000000

Difference to rotation invariance:
           :    0.0000474060    0.0001526819   -0.0001462228

Norm of the Cartesian gradient     ...    0.0006839450
RMS gradient                       ...    0.0000632307
MAX gradient                       ...    0.0001672271

-------
TIMINGS
-------

Total SCF gradient time     ....       34.666 sec

Densities                   ....       0.004 sec  (  0.0%)
One electron gradient       ....       0.231 sec  (  0.7%)
RI-J Coulomb gradient       ....       0.912 sec  (  2.6%)
COSX gradient               ....      24.840 sec  ( 71.7%)
XC gradient                 ....       6.835 sec  ( 19.7%)
CPCM gradient               ....       1.083 sec  (  3.1%)
   A-Matrix (El+Nuc)        ....       0.428 sec  (  1.2%)
   Potential                ....       0.655 sec  (  1.9%)

Maximum memory used throughout the entire SCFGRAD-calculation: 107.8 MB


           ************************************************************
           *        Program running with 16 parallel MPI-processes    *
           *              working on a common directory               *
           ************************************************************

------------------------------------------------------------------------------
                         ORCA PROPERTY INTEGRAL CALCULATIONS
------------------------------------------------------------------------------

GBWName                                   ... PreTS_SFFWPZQAGJSCLM-UHFFFAOYSA-N.gbw
Number of atoms                           ...     39
Number of basis functions                 ...    584
Max core memory                           ...   1000 MB

Dipole integrals                          ...  NO
Quadrupole integrals                      ...  NO
Linear momentum integrals                 ...  NO
Angular momentum integrals                ...  NO
Higher moments length integrals           ...  NO
Higher moments velocity integrals         ...  NO
Kinetic energy integrals                  ...  NO
GIAO right hand sides                     ...  NO
GIAO dipole derivative integrals          ...  NO
SOC integrals                             ...  NO
EPR diamagnetic integrals (GIAO)          ...  NO
EPR gauge integrals                       ...  NO
Field gradient integrals                  ...  NO (   0 nuclei)
Spin-dipole/Fermi contact integrals       ...  NO (   0 nuclei)
Contact density integrals                 ...  NO (   0 nuclei)
Nucleus-orbit integrals                   ...  NO (   0 nuclei)
Geometric perturbations                   ... YES (  39 nuclei)

Choice of electric origin   ... Center of mass
Position of electric origin ... ( -8.9539,  0.6739, -0.7992) 
Choice of magnetic origin   ... GIAO
Position of magnetic origin ... (  0.0000,  0.0000,  0.0000) 

Calculating integrals                     ... Geometrical perturbation right hand sides

-----------------------
GEOMETRIC PERTURBATIONS (39 nuclei)
-----------------------

MaxCore                            ...   1000 MB
Number of batches                  ...      3

BATCH   0: Atoms    0 -   12 ( 39 perturbations)
   => H(core) and overlap derivative integrals     ... done (     0.2 sec)
   => Making and storing internal U-coefficients   ... done (     0.1 sec)
   => RI-J derivative integrals                    ... done (     3.1 sec)
   => RI-J response operators                      ... done (     0.8 sec)
   => Chain of spheres derivative integrals        ... done (    47.0 sec)
   => Chain of spheres response operator           ... done (   195.8 sec)
   => XC derivative integrals                      ... done (    65.0 sec)
   => XC response operators                        ... done (    22.2 sec)
   => CPCM derivative integrals                    ... done (    12.0 sec)
   => CPCM response operators                      ... done (    18.8 sec)
   => Completing and storing right hand sides      ... done (     0.0 sec)
BATCH   1: Atoms   13 -   25 ( 39 perturbations)
   => H(core) and overlap derivative integrals     ... done (     0.2 sec)
   => Making and storing internal U-coefficients   ... done (     0.0 sec)
   => RI-J derivative integrals                    ... done (     2.9 sec)
   => RI-J response operators                      ... done (     0.8 sec)
   => Chain of spheres derivative integrals        ... done (    46.0 sec)
   => Chain of spheres response operator           ... done (   195.0 sec)
   => XC derivative integrals                      ... done (    60.7 sec)
   => XC response operators                        ... done (    23.3 sec)
   => CPCM derivative integrals                    ... done (    12.2 sec)
   => CPCM response operators                      ... done (    19.2 sec)
   => Completing and storing right hand sides      ... done (     0.0 sec)
BATCH   2: Atoms   26 -   38 ( 39 perturbations)
   => H(core) and overlap derivative integrals     ... done (     0.2 sec)
   => Making and storing internal U-coefficients   ... done (     0.1 sec)
   => RI-J derivative integrals                    ... done (     2.9 sec)
   => RI-J response operators                      ... done (     0.8 sec)
   => Chain of spheres derivative integrals        ... done (    28.9 sec)
   => Chain of spheres response operator           ... done (   184.1 sec)
   => XC derivative integrals                      ... done (    47.9 sec)
   => XC response operators                        ... done (    22.2 sec)
   => CPCM derivative integrals                    ... done (    11.7 sec)
   => CPCM response operators                      ... done (    19.2 sec)
   => Completing and storing right hand sides      ... done (     0.0 sec)
   => Total time for right hand sides = 1013.4 sec

  geometrical perturbations done (1013.4 sec)

Property integrals calculated in 1013.5 sec

Maximum memory used throughout the entire PROPINT-calculation: 881.9 MB


           ************************************************************
           *        Program running with 16 parallel MPI-processes    *
           *              working on a common directory               *
           ************************************************************
------------------------------------------------------------------------------
                            ORCA SCF RESPONSE CALCULATION
------------------------------------------------------------------------------

GBWName                                 ... PreTS_SFFWPZQAGJSCLM-UHFFFAOYSA-N.gbw
Number of atoms                         ...     39
Number of basis functions               ...    584
Max core memory                         ...   1000 MB

Electric field perturbation             ...  NO
Quadrupolar field perturbation          ...  NO
Magnetic field perturbation (no GIAO)   ...  NO
Magnetic field perturbation (with GIAO) ...  NO
Linear momentum (velocity) perturbation ...  NO
Spin-orbit coupling perturbation        ...  NO
Choice of electric origin               ... Center of mass
Position of electric origin             ...    -8.953897     0.673944    -0.799212
Choice of magnetic origin               ... GIAO
Position of magnetic origin             ...     0.000000     0.000000     0.000000
Nuclear geometric perturbations         ... YES ( 117 perturbations)
Nucleus-orbit perturbations             ...  NO (   0 perturbations)
Spin-dipole/Fermi contact perturbations ...  NO (   0 perturbations)

Total number of real perturbations      ...    117
Total number of imaginary perturbations ...      0
Total number of triplet perturbations   ...      0
Total number of SOC perturbations       ...      0

Using XC Grid                  ... (PreTS_SFFWPZQAGJSCLM-UHFFFAOYSA-N.grid_cpscf.tmp) 
Recalculating density on grid  ... (PreTS_SFFWPZQAGJSCLM-UHFFFAOYSA-N.grho_cpscf0.tmp) done
Calculating the xc-kernel      ... (PreTS_SFFWPZQAGJSCLM-UHFFFAOYSA-N.fxc_cpscf0.tmp) done

                                **********************
                                * REAL PERTURBATIONS *
                                **********************



-------------------
SHARK CP-SCF DRIVER
-------------------

Dimension of the orbital basis          ...    584
Dimension of the CPSCF-problem          ...  59607
Number of operators                     ...      2
Max. number of iterations               ...    128
Convergence Tolerance                   ... 1.0e-04
Number of perturbations                 ...    117
Perturbation type                       ... REAL

----------------------------
POPLE LINEAR EQUATION SOLVER
----------------------------

  ITERATION   0:   ||err||_max =   2.1640e-01 ( 135.5 sec   0/117 done)
  ITERATION   1:   ||err||_max =   1.1960e-01 ( 150.2 sec   0/117 done)
  ITERATION   2:   ||err||_max =   8.1146e-02 ( 154.5 sec   0/117 done)
  ITERATION   3:   ||err||_max =   3.2789e-02 ( 150.3 sec   0/117 done)
  ITERATION   4:   ||err||_max =   1.2712e-02 ( 151.2 sec   1/117 done)
  ITERATION   5:   ||err||_max =   5.4075e-03 ( 139.5 sec  29/117 done)
  ITERATION   6:   ||err||_max =   2.5296e-03 ( 107.9 sec  67/117 done)
  ITERATION   7:   ||err||_max =   1.0048e-03 (  62.1 sec  84/117 done)
  ITERATION   8:   ||err||_max =   4.2242e-04 (  38.3 sec  95/117 done)
  ITERATION   9:   ||err||_max =   1.7954e-04 (  26.3 sec 110/117 done)
  ITERATION  10:   ||err||_max =   6.9135e-05 (  10.4 sec 117/117 done)

CP-SCF equations solved in 1127.0 sec
Response densities calculated in   0.1 sec

Maximum memory used throughout the entire SCFRESP-calculation: 963.1 MB


           ************************************************************
           *        Program running with 16 parallel MPI-processes    *
           *              working on a common directory               *
           ************************************************************

------------------------------------------------------------------------------
                              ORCA PROPERTY CALCULATIONS
------------------------------------------------------------------------------

GBWName                                 ... PreTS_SFFWPZQAGJSCLM-UHFFFAOYSA-N.gbw
Number of atoms                         ...     39
Number of basis functions               ...    584
Max core memory                         ...   1000 MB

Electric properties:
Dipole moment                           ...  NO
Quadrupole moment                       ...  NO
Static polarizability (Dipole/Dipole)   ...  NO
Static polarizability (Dipole/Quad.)    ...  NO
Static polarizability (Quad./Quad.)     ...  NO
Static polarizability (Velocity)        ...  NO

Atomic electric properties:
Dipole moment                           ...  NO
Quadrupole moment                       ...  NO
Static polarizability                   ...  NO

Choice of electric origin               ... Center of mass
Position of electric origin             ...    -8.953897     0.673944    -0.799212

General magnetic properties:
Magnetizability                         ...  NO

EPR properties:
g-Tensor (aka g-matrix)                 ...  NO
Zero-Field splitting spin-orbit         ...  NO
Zero-field splitting spin-spin          ...  NO
Hyperfine couplings                     ...  NO (   0 nuclei)
Quadrupole couplings                    ...  NO (   0 nuclei)
Contact density                         ...  NO (   0 nuclei)

NMR properties:
Chemical shifts                         ...  NO (   0 nuclei)
Spin-rotation constants                 ...  NO (   0 nuclei)
Spin-spin couplings                     ...  NO (   0 nuclei,    0 pairs)

Choice of magnetic origin               ... GIAO
Position of magnetic origin             ...     0.000000     0.000000     0.000000

Properties with geometric perturbations:
SCF Hessian                             ... YES
IR spectrum                             ... YES
VCD spectrum                            ...  NO
X-ray spectroscopy properties:
SCF XES/XAS/RIXS spectra                ...  NO


-----------
SCF HESSIAN
-----------

Occupied/Occupied contributions to the Hessian:
   => Occupied/Occupied contributions              ... done (  0.0 sec)
Perturbed density contributions to the Hessian:
   => Perturbed density contributions              ... done (  0.3 sec)
Explicit contributions to the Hessian:
   => Nuclear repulsion Hessian                    ... done (  0.0 sec)
   => HCore and overlap Hessian                    ... done ( 14.7 sec)
   => RI-J Hessian                                 ... done (  8.0 sec)
   => COSX Hessian                                 ... done (331.1 sec)
   => XC-Hessian                                   ... done ( 61.4 sec)
   => CPCM-Hessian                                 ... done ( 17.6 sec)
   => Van der Waals-Hessian                        ... done (  0.6 sec)
   => Explicit contributions done
Dipole derivatives                                 ... done (  0.2 sec)
Mass weighting the Hessian           ... done
Calculating normal modes             ... done
Scaling frequencies                  ... done

-----------------------
VIBRATIONAL FREQUENCIES
-----------------------

Scaling factor for frequencies =  1.000000000  (already applied!)

     0:       0.00 cm**-1
     1:       0.00 cm**-1
     2:       0.00 cm**-1
     3:       0.00 cm**-1
     4:       0.00 cm**-1
     5:       0.00 cm**-1
     6:    -518.30 cm**-1 ***imaginary mode***
     7:       7.82 cm**-1
     8:      15.34 cm**-1
     9:      31.68 cm**-1
    10:      39.70 cm**-1
    11:      64.28 cm**-1
    12:      71.88 cm**-1
    13:      78.55 cm**-1
    14:      93.40 cm**-1
    15:     109.91 cm**-1
    16:     133.50 cm**-1
    17:     176.65 cm**-1
    18:     185.99 cm**-1
    19:     210.77 cm**-1
    20:     221.82 cm**-1
    21:     243.93 cm**-1
    22:     247.01 cm**-1
    23:     268.70 cm**-1
    24:     286.22 cm**-1
    25:     292.63 cm**-1
    26:     324.78 cm**-1
    27:     355.04 cm**-1
    28:     358.04 cm**-1
    29:     447.74 cm**-1
    30:     463.24 cm**-1
    31:     545.53 cm**-1
    32:     581.37 cm**-1
[...]
   150. D(H  17,C   6,C   5,H  16)     61.83  0.000001    0.01     61.84   
   151. D(H  18,C   6,C   5,H  16)    -58.21  0.000000    0.01    -58.20   
   152. D(H  28,C  20,C   1,H  10)    176.65  0.000001    0.00    176.66   
   153. D(H  28,C  20,C   1,O   2)    -64.31 -0.000000    0.01    -64.30   
   154. D(H  28,C  20,C   1,C   0)     55.17  0.000002    0.00     55.18   
   155. D(H  27,C  20,C   1,H  10)    -66.45  0.000002    0.00    -66.45   
   156. D(H  27,C  20,C   1,O   2)     52.59  0.000000    0.01     52.59   
   157. D(H  27,C  20,C   1,C   0)    172.06  0.000003    0.00    172.07   
   158. D(C  21,C  20,C   1,H  10)     55.40  0.000002    0.00     55.40   
   159. D(C  21,C  20,C   1,O   2)    174.44  0.000000    0.01    174.45   
   160. D(C  21,C  20,C   1,C   0)    -66.08  0.000003    0.00    -66.08   
   161. D(H  29,C  21,C  20,H  28)    -15.78  0.000000    0.00    -15.77   
   162. D(H  29,C  21,C  20,H  27)   -169.16 -0.000001    0.00   -169.16   
   163. D(O  22,C  21,C  20,C   1)    -88.24  0.000001    0.01    -88.23   
   164. D(O  22,C  21,C  20,H  28)    168.41  0.000002    0.01    168.42   
   165. D(H  29,C  21,C  20,C   1)     87.57 -0.000001    0.00     87.57   
   166. D(O  22,C  21,C  20,H  27)     15.03  0.000001    0.00     15.03   
   167. D(C  23,O  22,C  21,H  29)    -20.43 -0.000004    0.00    -20.43   
   168. D(C  23,O  22,C  21,C  20)    155.67 -0.000006   -0.00    155.67   
   169. D(H  31,C  23,O  22,C  21)     46.33 -0.000003    0.03     46.36   
   170. D(H  30,C  23,O  22,C  21)    162.18 -0.000002    0.03    162.21   
   171. D(C  24,C  23,O  22,C  21)    -76.59 -0.000004    0.03    -76.55   
   172. D(H  32,C  24,C  23,H  31)    -65.89 -0.000001    0.00    -65.89   
   173. D(H  32,C  24,C  23,H  30)    174.35  0.000001    0.00    174.35   
   174. D(H  32,C  24,C  23,O  22)     56.57 -0.000000    0.00     56.57   
   175. D(C  25,C  24,C  23,H  31)     55.77 -0.000002    0.00     55.78   
   176. D(C  25,C  24,C  23,H  30)    -63.99  0.000000    0.00    -63.98   
   177. D(C  25,C  24,C  23,O  22)    178.23 -0.000001    0.00    178.24   
   178. D(H  34,C  25,C  24,H  32)     63.01  0.000000    0.02     63.03   
   179. D(H  34,C  25,C  24,C  23)    -58.09 -0.000003    0.02    -58.07   
   180. D(C  26,C  25,C  24,H  33)    -56.99 -0.000001    0.02    -56.97   
   181. D(C  26,C  25,C  24,H  32)   -173.89  0.000002    0.02   -173.87   
   182. D(C  26,C  25,C  24,C  23)     65.00 -0.000001    0.02     65.02   
   183. D(H  34,C  25,C  24,H  33)    179.91 -0.000003    0.02    179.93   
   184. D(H  37,C  26,C  25,H  35)    -65.80 -0.000001    0.02    -65.78   
   185. D(H  37,C  26,C  25,H  34)    178.52  0.000000    0.02    178.54   
   186. D(H  37,C  26,C  25,C  24)     55.60 -0.000003    0.02     55.62   
   187. D(H  36,C  26,C  25,H  35)    173.90 -0.000000    0.02    173.92   
   188. D(H  36,C  26,C  25,H  34)     58.22  0.000001    0.02     58.24   
   189. D(H  36,C  26,C  25,C  24)    -64.70 -0.000002    0.02    -64.68   
    ----------------------------------------------------------------------------

Geometry step timings:
Preparation and reading OPT file:      0.002 s ( 0.759 %)
Internal coordinates            :      0.000 s ( 0.019 %)
B/P matrices and projection     :      0.005 s ( 1.968 %)
Hessian update/contruction      :      0.254 s (94.861 %)
Making the step                 :      0.003 s ( 1.307 %)
Converting the step to Cartesian:      0.000 s ( 0.147 %)
Storing new data                :      0.000 s ( 0.039 %)
Checking convergence            :      0.000 s ( 0.020 %)
Final printing                  :      0.002 s ( 0.878 %)
Total time                      :      0.267 s
                 *******************************************************
                 *** FINAL ENERGY EVALUATION AT THE STATIONARY POINT ***
                 ***               (AFTER   10 CYCLES)               ***
                 *******************************************************
---------------------------------
CARTESIAN COORDINATES (ANGSTROEM)
---------------------------------
  C     -4.683741   -0.228336    2.023480
  C     -4.139705   -0.312836    0.641377
  O     -2.797598   -0.574319    0.608989
  C     -2.298422   -1.023860   -0.641548
  C     -0.785901   -1.016180   -0.603800
  C     -0.188086    0.380407   -0.473864
  C      1.334606    0.368290   -0.446711
  H     -5.712360    0.135517    1.996540
  H     -4.679109   -1.203155    2.524855
  H     -4.090279    0.460893    2.629495
  H     -4.725390   -0.861380   -0.097707
  H     -2.679673   -2.033942   -0.836077
  H     -2.663882   -0.368916   -1.441913
  H     -0.424704   -1.490054   -1.522588
  H     -0.449609   -1.645845    0.226646
  H     -0.537955    0.997120   -1.309086
  H     -0.570498    0.850437    0.435876
  H      1.707172   -0.217590    0.397515
  H      1.739363    1.377924   -0.354623
  H      1.742497   -0.072291   -1.360304
  C     -4.394129    1.768547   -0.164959
  C     -5.701667    2.100866   -0.296215
  O     -6.384303    1.818368   -1.440680
  C     -7.792351    1.702002   -1.296597
  C     -8.193771    0.377101   -0.668700
  C     -9.699900    0.234837   -0.459094
  C    -10.509556    0.200931   -1.751704
  H     -3.825007    1.501835   -1.047196
  H     -3.839487    2.173193    0.671232
  H     -6.286587    2.540244    0.507897
  H     -8.196330    1.801581   -2.304483
  H     -8.171896    2.540391   -0.697346
  H     -7.682770    0.283311    0.294805
  H     -7.824015   -0.436653   -1.301300
  H    -10.055432    1.053769    0.175678
  H     -9.884454   -0.684647    0.102866
  H    -10.443986    1.142770   -2.300372
  H    -10.154847   -0.593645   -2.413467
  H    -11.565649    0.016319   -1.546595

----------------------------
CARTESIAN COORDINATES (A.U.)
----------------------------
  NO LB      ZA    FRAG     MASS         X           Y           Z
   0 C     6.0000    0    12.011   -8.850987   -0.431493    3.823822
   1 C     6.0000    0    12.011   -7.822909   -0.591174    1.212027
   2 O     8.0000    0    15.999   -5.286695   -1.085305    1.150822
   3 C     6.0000    0    12.011   -4.343388   -1.934815   -1.212349
   4 C     6.0000    0    12.011   -1.485137   -1.920303   -1.141016
   5 C     6.0000    0    12.011   -0.355430    0.718865   -0.895474
   6 C     6.0000    0    12.011    2.522039    0.695968   -0.844161
   7 H     1.0000    0     1.008  -10.794796    0.256089    3.772913
   8 H     1.0000    0     1.008   -8.842234   -2.273634    4.771284
   9 H     1.0000    0     1.008   -7.729506    0.870961    4.969025
  10 H     1.0000    0     1.008   -8.929694   -1.627773   -0.184640
  11 H     1.0000    0     1.008   -5.063848   -3.843593   -1.579957
  12 H     1.0000    0     1.008   -5.034007   -0.697151   -2.724821
  13 H     1.0000    0     1.008   -0.802574   -2.815794   -2.877275
  14 H     1.0000    0     1.008   -0.849638   -3.110196    0.428299
  15 H     1.0000    0     1.008   -1.016587    1.884283   -2.473813
  16 H     1.0000    0     1.008   -1.078085    1.607092    0.823686
  17 H     1.0000    0     1.008    3.226088   -0.411185    0.751195
  18 H     1.0000    0     1.008    3.286920    2.603900   -0.670140
  19 H     1.0000    0     1.008    3.292843   -0.136611   -2.570602
  20 C     6.0000    0    12.011   -8.303701    3.342069   -0.311728
  21 C     6.0000    0    12.011  -10.774590    3.970061   -0.559766
  22 O     8.0000    0    15.999  -12.064585    3.436217   -2.722491
  23 C     6.0000    0    12.011  -14.725409    3.216318   -2.450213
  24 C     6.0000    0    12.011  -15.483983    0.712617   -1.263659
  25 C     6.0000    0    12.011  -18.330154    0.443777   -0.867562
  26 C     6.0000    0    12.011  -19.860182    0.379705   -3.310240
  27 H     1.0000    0     1.008   -7.228215    2.838057   -1.978913
  28 H     1.0000    0     1.008   -7.255579    4.106739    1.268445
  29 H     1.0000    0     1.008  -11.879928    4.800366    0.959787
  30 H     1.0000    0     1.008  -15.488819    3.404495   -4.354842
  31 H     1.0000    0     1.008  -15.442646    4.800644   -1.317793
  32 H     1.0000    0     1.008  -14.518331    0.535381    0.557101
  33 H     1.0000    0     1.008  -14.785246   -0.825154   -2.459100
  34 H     1.0000    0     1.008  -19.002013    1.991335    0.331984
  35 H     1.0000    0     1.008  -18.678911   -1.293796    0.194389
  36 H     1.0000    0     1.008  -19.736272    2.159522   -4.347073
  37 H     1.0000    0     1.008  -19.189879   -1.121827   -4.560792
  38 H     1.0000    0     1.008  -21.855910    0.030839   -2.922641



           ************************************************************
           *        Program running with 16 parallel MPI-processes    *
           *              working on a common directory               *
           ************************************************************
------------------------------------------------------------------------------
                   ___                                                        
                  /   \      - P O W E R E D   B Y -                         
                 /     \                                                     
                 |  |  |   _    _      __       _____    __    __             
                 |  |  |  | |  | |    /  \     |  _  \  |  |  /  |          
                  \  \/   | |  | |   /    \    | | | |  |  | /  /          
                 / \  \   | |__| |  /  /\  \   | |_| |  |  |/  /          
                |  |  |   |  __  | /  /__\  \  |    /   |      \           
                |  |  |   | |  | | |   __   |  |    \   |  |\   \          
                \     /   | |  | | |  |  |  |  | |\  \  |  | \   \       
                 \___/    |_|  |_| |__|  |__|  |_| \__\ |__|  \__/        
                                                                              
                      - O R C A' S   B I G   F R I E N D -                    
                                      &                                       
                       - I N T E G R A L  F E E D E R -                       
                                                                              
 v1 FN, 2020, v2 2021, v3 2022-2024                                           
------------------------------------------------------------------------------


----------------------
SHARK INTEGRAL PACKAGE
----------------------

Number of atoms                             ...     39
Number of basis functions                   ...    584
Number of shells                            ...    254
Maximum angular momentum                    ...      3
Integral batch strategy                     ... SHARK/LIBINT Hybrid
RI-J (if used) integral strategy            ... SPLIT-RIJ (Revised 2003 algorithm where possible)
Printlevel                                  ...      1
Contraction scheme used                     ... SEGMENTED contraction
Prescreening option                         ... SCHWARTZ
   Thresh                                   ... 2.500e-11
   Tcut                                     ... 2.500e-12
   Tpresel                                  ... 2.500e-12 
Coulomb Range Separation                    ... NOT USED
Exchange Range Separation                   ... Long Range
   Mu parameter                             ... 2.500e-01
   Scaling (regular/separated)              ... 1.957e-01 8.043e-01
Multipole approximations                    ... NOT USED
Finite Nucleus Model                        ... NOT USED
CABS basis                                  ... NOT available
Auxiliary Coulomb fitting basis             ... AVAILABLE
   # of basis functions in Aux-J            ...    961
   # of shells in Aux-J                     ...    335
   Maximum angular momentum in Aux-J        ...      4
Auxiliary J/K fitting basis                 ... NOT available
Auxiliary Correlation fitting basis         ... NOT available
Auxiliary 'external' fitting basis          ... NOT available

Checking pre-screening integrals            ... done (  0.0 sec) Dimension = 254
Check shell pair data                       ... done (  0.0 sec)
Shell pair information
Shell pair cut-off parameter TPreSel        ...   2.5e-12
Total number of shell pairs                 ...     32385
Shell pairs after pre-screening             ...     22276
Total number of primitive shell pairs       ...     93048
Primitive shell pairs kept                  ...     44505
          la=0 lb=0:   7277 shell pairs
          la=1 lb=0:   6782 shell pairs
          la=1 lb=1:   1640 shell pairs
          la=2 lb=0:   2745 shell pairs
          la=2 lb=1:   1305 shell pairs
          la=2 lb=2:    281 shell pairs
          la=3 lb=0:   1309 shell pairs
          la=3 lb=1:    620 shell pairs
          la=3 lb=2:    251 shell pairs
          la=3 lb=3:     66 shell pairs

Calculating one electron integrals          ... done (  0.0 sec)
Calculating RI/J V-Matrix + Cholesky decomp.... done (  0.1 sec)
Calculating Nuclear repulsion               ... done (  0.0 sec) ENN=    913.421450169092 Eh

Diagonalization of the overlap matrix:
Smallest eigenvalue                        ... 1.229e-04
Time for diagonalization                   ...    0.049 sec
Threshold for overlap eigenvalues          ... 1.000e-07
Number of eigenvalues below threshold      ... 0
Time for construction of square roots      ...    0.022 sec
Total time needed                          ...    0.073 sec

-------------------
DFT GRID GENERATION
-------------------

General Integration Accuracy     IntAcc      ... 4.959
Radial Grid Type                 RadialGrid  ... OptM3 with GC (2021)
Angular Grid (max. ang.)         AngularGrid ... 6 (Lebedev-590)
Angular grid pruning method      GridPruning ... 4 (adaptive)
Weight generation scheme         WeightScheme... mBecke (2022)
Basis function cutoff            BFCut       ... 1.0000e-11
Integration weight cutoff        WCut        ... 1.0000e-14
Partially contracted basis set               ... off
Rotationally invariant grid construction     ... off
Angular grids for H and He will be reduced by one unit

Total number of grid points                  ...   413292
Total number of batches                      ...     6474
Average number of points per batch           ...       63
Average number of grid points per atom       ...    10597

--------------------
COSX GRID GENERATION
--------------------

GRIDX 1
-------
General Integration Accuracy     IntAcc      ... 4.020
Radial Grid Type                 RadialGrid  ... OptM3 with GC (2021)
Angular Grid (max. ang.)         AngularGrid ... 2 (Lebedev-110)
Angular grid pruning method      GridPruning ... 4 (adaptive)
Weight generation scheme         WeightScheme... mBecke (2022)
Basis function cutoff            BFCut       ... 1.0000e-11
Integration weight cutoff        WCut        ... 1.0000e-14
Partially contracted basis set               ... on
Rotationally invariant grid construction     ... off
Angular grids for H and He will be reduced by one unit

Total number of grid points                  ...    43350
Total number of batches                      ...      360
Average number of points per batch           ...      120
Average number of grid points per atom       ...     1112
UseSFitting                                  ... on

GRIDX 2
-------
General Integration Accuracy     IntAcc      ... 4.338
Radial Grid Type                 RadialGrid  ... OptM3 with GC (2021)
Angular Grid (max. ang.)         AngularGrid ... 3 (Lebedev-194)
Angular grid pruning method      GridPruning ... 4 (adaptive)
Weight generation scheme         WeightScheme... mBecke (2022)
Basis function cutoff            BFCut       ... 1.0000e-11
Integration weight cutoff        WCut        ... 1.0000e-14
Partially contracted basis set               ... on
Rotationally invariant grid construction     ... off
Angular grids for H and He will be reduced by one unit

Total number of grid points                  ...    94120
Total number of batches                      ...      753
Average number of points per batch           ...      124
Average number of grid points per atom       ...     2413
UseSFitting                                  ... on

GRIDX 3
-------
General Integration Accuracy     IntAcc      ... 4.871
Radial Grid Type                 RadialGrid  ... OptM3 with GC (2021)
Angular Grid (max. ang.)         AngularGrid ... 4 (Lebedev-302)
Angular grid pruning method      GridPruning ... 4 (adaptive)
Weight generation scheme         WeightScheme... mBecke (2022)
Basis function cutoff            BFCut       ... 1.0000e-11
Integration weight cutoff        WCut        ... 1.0000e-14
Partially contracted basis set               ... on
Rotationally invariant grid construction     ... off
Angular grids for H and He will be reduced by one unit

Total number of grid points                  ...   185091
Total number of batches                      ...     1466
Average number of points per batch           ...      126
Average number of grid points per atom       ...     4746
UseSFitting                                  ... on
Initializing property integral containers    ... done (  0.0 sec)

SHARK setup successfully completed in   5.4 seconds

Maximum memory used throughout the entire STARTUP-calculation: 106.4 MB


           ************************************************************
           *        Program running with 16 parallel MPI-processes    *
           *              working on a common directory               *
           ************************************************************
             **** ENERGY FILE WAS UPDATED (PreTS_SFFWPZQAGJSCLM-UHFFFAOYSA-N.en.tmp) ****
Finished Guess after   0.9 sec
Maximum memory used throughout the entire GUESS-calculation: 45.1 MB


           ************************************************************
           *        Program running with 16 parallel MPI-processes    *
           *              working on a common directory               *
           ************************************************************
--------------------
CPCM SOLVATION MODEL
--------------------
CPCM parameters:
  Epsilon                                         ...       2.2790
  Refrac                                          ...       1.5011
  Rsolv                                           ...       1.3000
  Surface type                                    ... GAUSSIAN VDW
  Discretization scheme                           ... Constant charge density
    Threshold for H atoms                         ...       5.0000 (charges/Ang^2)
    Threshold for non-H atoms                     ...       5.0000 (charges/Ang^2)
  Epsilon function type                           ...         CPCM
Solvent:                                          ... BENZENE
Radii:
  Scheme                                          ... Element-dependent radii
  Radius for C  used is    3.8550 Bohr (=   2.0400 Ang.)
  Radius for O  used is    3.4469 Bohr (=   1.8240 Ang.)
  Radius for H  used is    2.4944 Bohr (=   1.3200 Ang.)
Calculating surface                               ...        done! (  0.0s)
Cavity surface points                             ...         3305
Cavity Volume                                     ...    1986.3823
Cavity Surface-area                               ...    1120.0980
Calculating surface distance matrix               ...        done! (  0.1s)
Performing Cholesky decomposition & store         ...        done! (  0.2s)
Overall time for CPCM initialization              ...                 0.3s

----------------------------------------D-I-I-S--------------------------------------------
Iteration    Energy (Eh)           Delta-E    RMSDP     MaxDP     DIISErr   Damp  Time(sec)
-------------------------------------------------------------------------------------------
               ***  Starting incremental Fock matrix formation  ***
Monitor: Convergence condition met, terminating ORCA process...
