
                                 *****************
                                 * O   R   C   A *
                                 *****************

                                            #,                                       
                                            ###                                      
                                            ####                                     
                                            #####                                    
                                            ######                                   
                                           ########,                                 
                                     ,,################,,,,,                         
                               ,,#################################,,                 
                          ,,##########################################,,             
                       ,#########################################, ''#####,          
                    ,#############################################,,   '####,        
                  ,##################################################,,,,####,       
                ,###########''''           ''''###############################       
              ,#####''   ,,,,##########,,,,          '''####'''          '####       
            ,##' ,,,,###########################,,,                        '##       
           ' ,,###''''                  '''############,,,                           
         ,,##''                                '''############,,,,        ,,,,,,###''
      ,#''                                            '''#######################'''  
     '                                                          ''''####''''         
             ,#######,   #######,   ,#######,      ##                                
            ,#'     '#,  ##    ##  ,#'     '#,    #''#        ,####,   ,####,        
            ##       ##  ##   ,#'  ##            #'  '#       #'       #'  '#        
            ##       ##  #######   ##           ,######,      #####,   #    #        
            '#,     ,#'  ##    ##  '#,     ,#' ,#      #,     #,   #   #,  ,#        
             '#######'   ##     ##  '#######'  #'      '#     '####' # '####'        



                #########################################################
                #                        -***-                          #
                #          Department of theory and spectroscopy        #
                #                                                       #
                #                      Frank Neese                      #
                #                                                       #
                #     Directorship, Architecture, Infrastructure        #
                #                    SHARK, DRIVERS                     #
                #        Core code/Algorithms in most modules           #
                #                                                       #
                #        Max Planck Institute fuer Kohlenforschung      #
                #                Kaiser Wilhelm Platz 1                 #
                #                 D-45470 Muelheim/Ruhr                 #
                #                      Germany                          #
                #                                                       #
                #                  All rights reserved                  #
                #                        -***-                          #
                #########################################################


                         Program Version 6.0.0  -   RELEASE  -


 With contributions from (in alphabetic order):
   Daniel Aravena         : Magnetic Suceptibility
   Michael Atanasov       : Ab Initio Ligand Field Theory (pilot matlab implementation)
   Alexander A. Auer      : GIAO ZORA, VPT2 properties, NMR spectrum
   Ute Becker             : All parallelization in ORCA, NUMFREQ, NUMCALC
   Giovanni Bistoni       : ED, misc. LED, open-shell LED, HFLD
   Martin Brehm           : Molecular dynamics
   Dmytro Bykov           : pre 5.0 version of the SCF Hessian
   Marcos Casanova-Páez   : Triplet and SCS-CIS(D). UHF-(DLPNO)-IP/EA/STEOM-CCSD. UHF-CVS-IP/STEOM-CCSD
   Vijay G. Chilkuri      : MRCI spin determinant printing, contributions to CSF-ICE
   Pauline Colinet        : FMM embedding
   Dipayan Datta          : RHF DLPNO-CCSD density
   Achintya Kumar Dutta   : EOM-CC, STEOM-CC
   Nicolas Foglia         : Exact transition moments, OPA infrastructure, MCD improvements
   Dmitry Ganyushin       : Spin-Orbit,Spin-Spin,Magnetic field MRCI
   Miquel Garcia          : C-PCM and meta-GGA Hessian, CCSD/C-PCM, Gaussian charge scheme
   Tiago L. C. Gouveia    : GS-ROHF, GS-ROCIS
   Yang Guo               : DLPNO-NEVPT2, F12-NEVPT2, CIM, IAO-localization
   Andreas Hansen         : Spin unrestricted coupled pair/coupled cluster methods
   Ingolf Harden          : AUTO-CI MPn and infrastructure 
   Benjamin Helmich-Paris : MC-RPA, TRAH-(SCF,CASSCF), AVAS, COSX integrals, SCF dyn. polar.
   Lee Huntington         : MR-EOM, pCC
   Robert Izsak           : Overlap fitted RIJCOSX, COSX-SCS-MP3, EOM
   Riya Kayal             : Wick's Theorem for AUTO-CI, AUTO-CI UHF-CCSDT
   Emily Kempfer          : AUTO-CI, RHF CISDT and CCSDT
   Christian Kollmar      : KDIIS, OOCD, Brueckner-CCSD(T), CCSD density, CASPT2, CASPT2-K, improved NEVPT2
   Axel Koslowski         : Symmetry handling
   Simone Kossmann        : Meta GGA functionals, TD-DFT gradient, OOMP2, (MP2 Hessian; deprecated post 5.0)
   Lucas Lang             : DCDCAS
   Marvin Lechner         : AUTO-CI (C++ implementation), FIC-MRCC
   Spencer Leger          : CASSCF response
   Dagmar Lenk            : GEPOL surface, SMD, ORCA-2-JSON
   Dimitrios Liakos       : Extrapolation schemes; Compound Job, initial MDCI parallelization
   Dimitrios Manganas     : Further ROCIS development; embedding schemes. LFT, Crystal Embedding
   Dimitrios Pantazis     : SARC Basis sets
   Anastasios Papadopoulos: AUTO-CI, single reference methods and gradients
   Taras Petrenko         : pre 6.0 DFT Hessian and TD-DFT gradient, (ASA, deprecated), ECA, 1-Electron XAS/XES, NRVS
   Peter Pinski           : DLPNO-MP2, DLPNO-MP2 Gradient
   Christoph Reimann      : Effective Core Potentials
   Marius Retegan         : Local ZFS, SOC
   Christoph Riplinger    : Optimizer, TS searches, QM/MM, DLPNO-CCSD(T), (RO)-DLPNO pert. Triples
   Michael Roemelt        : Original ROCIS implementation
   Masaaki Saitow         : Open-shell DLPNO-CCSD energy and density
   Barbara Sandhoefer     : DKH picture change effects
   Kantharuban Sivalingam : CASSCF convergence/infrastructure, NEVPT2 and variants, FIC-MRCI
   Bernardo de Souza      : ESD, SOC TD-DFT
   Georgi Stoychev        : AutoAux, RI-MP2 NMR, DLPNO-MP2 response, X2C
   Van Anh Tran           : RI-MP2 g-tensors
   Willem Van den Heuvel  : Paramagnetic NMR
   Zikuan Wang            : NOTCH, Electric field optimization 
   Frank Wennmohs         : Technical directorship and infrastructure
   Hang Xu                : AUTO-CI-Response properties 


 We gratefully acknowledge several colleagues who have allowed us to
 interface, adapt or use parts of their codes:
   Stefan Grimme, W. Hujo, H. Kruse, P. Pracht,  : VdW corrections, initial TS optimization,
                  C. Bannwarth, S. Ehlert,         DFT functionals, gCP, sTDA/sTD-DF
                  L. Wittmann, M. Mueller
   Ed Valeev, F. Pavosevic, A. Kumar             : LibInt (2-el integral package), F12 methods
   Garnet Chan, S. Sharma, J. Yang, R. Olivares  : DMRG
   Ulf Ekstrom                                   : XCFun DFT Library
   Mihaly Kallay                                 : mrcc  (arbitrary order and MRCC methods)
   Frank Weinhold                                : gennbo (NPA and NBO analysis)
   Simon Mueller                                 : openCOSMO-RS
   Christopher J. Cramer and Donald G. Truhlar   : smd solvation model
   Lars Goerigk                                  : TD-DFT with DH, B97 family of functionals
   V. Asgeirsson, H. Jonsson                     : NEB implementation
   FAccTs GmbH                                   : IRC, NEB, NEB-TS, DLPNO-Multilevel, CI-OPT
                                                   MM, QMMM, 2- and 3-layer-ONIOM, Crystal-QMMM,
                                                   LR-CPCM, SF, NACMEs, symmetry and pop. for TD-DFT,
                                                   nearIR, NL-DFT gradient (VV10), updates on ESD,
                                                   ML-optimized integration grids, MBIS, APM,
                                                   GOAT, DOCKER, SOLVATOR, interface openCOSMO-RS
   S Lehtola, MJT Oliveira, MAL Marques          : LibXC Library
   Liviu Ungur et al                             : ANISO software


 Your calculation uses the libint2 library for the computation of 2-el integrals
 For citations please refer to: http://libint.valeyev.net

 Your ORCA version has been built with support for libXC version: 6.2.2
 For citations please refer to: https://libxc.gitlab.io

 This ORCA versions uses:
   CBLAS   interface :  Fast vector & matrix operations
   LAPACKE interface :  Fast linear algebra routines
   SCALAPACK package :  Parallel linear algebra routines
   Shared memory     :  Shared parallel matrices
   BLAS/LAPACK       :  OpenBLAS 0.3.27  USE64BITINT DYNAMIC_ARCH NO_AFFINITY SkylakeX SINGLE_THREADED
        Core in use  :  SkylakeX
   Copyright (c) 2011-2014, The OpenBLAS Project


NOTE: MaxCore=1000 MB was set to SCF,MP2,MDCI,CIPSI,MRCI and CIS
      => If you want to overwrite this, your respective input block should be placed after the MaxCore statement
Your calculation utilizes the atom-pairwise dispersion correction
with the zero-damping scheme (D30)


XCFun DFT library Copyright 2009-2010 Ulf Ekstrom and contributors.
See http://admol.org/xcfun for more information.
This is free software; see the source code for copying conditions.
There is ABSOLUTELY NO WARRANTY; not even for MERCHANTABILITY or FITNESS FOR A PARTICULAR PURPOSE.
For details see the documentation.
Scientific users of this library should cite U. Ekstrom, L. Visscher, R. Bast, A. J. Thorvaldsen and K. Ruud;
J.Chem.Theor.Comp. 2010, DOI: 10.1021/ct100117s
XCFun Version 0.99 

================================================================================

----- Orbital basis set information -----
Your calculation utilizes the basis: def2-TZVP
   F. Weigend and R. Ahlrichs, Phys. Chem. Chem. Phys. 7, 3297 (2005).

----- AuxJ basis set information -----
Your calculation utilizes the auxiliary basis: def2/J
   F. Weigend, Phys. Chem. Chem. Phys. 8, 1057 (2006).

================================================================================
                                        WARNINGS
                       Please study these warnings very carefully!
================================================================================


WARNING: your system is open-shell and RHF/RKS was chosen
  ===> : WILL SWITCH to UHF/UKS


================================================================================
                                       INPUT FILE
================================================================================
NAME = PreTS_BCXVYZIMXILZPC-UHFFFAOYSA-N.inp
|  1> ! wB97X-D3 def2-TZVP def2/J RIJCOSX CPCM(benzene) optTS freq tightSCF noautostart miniprint nopop 
|  2> 
|  3> %geom
|  4> MaxIter 150
|  5> Convergence tight
|  6> end
|  7> 
|  8> %maxcore  1000 
|  9> 
| 10> %pal nprocs   16 end
| 11> 
| 12> *xyz 0 2 
| 13> C    1.90576    -1.028429    3.432169
| 14> C    3.137542    -0.157706    3.296497
| 15> C    3.68808    0.220705    1.999511
| 16> C    5.024716    0.648906    1.931163
| 17> C    5.594276    1.051345    0.738691
| 18> C    4.8482    1.029024    -0.434407
| 19> C    3.53874    0.57351    -0.396661
| 20> C    2.967924    0.169041    0.799436
| 21> C    0.501923    -0.452797    3.408276
| 22> C    0.092228    0.586825    2.578888
| 23> C    -1.223244    1.028771    2.581364
| 24> C    -2.161063    0.442754    3.417138
| 25> C    -1.768537    -0.592997    4.251982
| 26> C    -0.453492    -1.031162    4.24329
| 27> H    2.002106    -1.574798    4.371456
| 28> H    1.9615    -1.793741    2.645629
| 29> H    3.918702    -0.474398    3.978625
| 30> H    5.618499    0.664492    2.839658
| 31> H    6.6262    1.38245    0.720287
| 32> H    5.288943    1.3512    -1.370154
| 33> H    2.954246    0.529372    -1.308291
| 34> H    1.952792    -0.20596    0.792219
| 35> H    0.803321    1.085229    1.934885
| 36> H    -1.510548    1.843067    1.925982
| 37> H    -3.187167    0.790962    3.419895
| 38> H    -2.486095    -1.059613    4.917063
| 39> H    -0.156241    -1.834955    4.908969
| 40> C    1.993384    2.497707    4.11515
| 41> C    2.999331    1.641686    4.529891
| 42> C    2.947333    0.979942    5.857149
| 43> C    4.142297    0.619831    6.480964
| 44> C    4.146997    -0.011816    7.714536
| 45> C    2.949967    -0.302391    8.351769
| 46> C    1.753374    0.049066    7.742791
| 47> C    1.751138    0.683565    6.511242
| 48> C    2.054483    3.434492    3.016008
| 49> C    3.204765    3.653553    2.243465
| 50> C    3.191979    4.53891    1.181474
| 51> C    2.036217    5.240274    0.860776
| 52> C    0.890698    5.050038    1.623429
| 53> C    0.900432    4.162906    2.684047
| 54> H    1.036425    2.453129    4.62223
| 55> H    4.007025    1.87205    4.201928
| 56> H    5.083872    0.842958    5.989471
| 57> H    5.089637    -0.277361    8.178864
| 58> H    2.948773    -0.798386    9.315032
| 59> H    0.810781    -0.172682    8.229843
| 60> H    0.803454    0.937894    6.053193
| 61> H    4.118122    3.119331    2.46826
| 62> H    4.09336    4.680878    0.596515
| 63> H    2.029207    5.929662    0.025021
| 64> H    -0.015309    5.59629    1.387596
| 65> H    0.001064    4.014991    3.272177
| 66> *
| 67> 
| 68> 
| 69>                          ****END OF INPUT****
================================================================================

                       *****************************
                       * Geometry Optimization Run *
                       *****************************

Geometry optimization settings:
Update method            Update   .... Bofill
Choice of coordinates    CoordSys .... (2022) Redundant Internals
Initial Hessian          InHess   .... Almloef's Model
Max. no of cycles        MaxIter  .... 150

Convergence Tolerances:
Energy Change            TolE     ....  1.0000e-06 Eh
Max. Gradient            TolMAXG  ....  1.0000e-04 Eh/bohr
RMS Gradient             TolRMSG  ....  3.0000e-05 Eh/bohr
Max. Displacement        TolMAXD  ....  1.0000e-03 bohr
RMS Displacement         TolRMSD  ....  6.0000e-04 bohr
Strict Convergence                .... False

------------------------------------------------------------------------------
                        ORCA OPTIMIZATION COORDINATE SETUP
------------------------------------------------------------------------------

The optimization will be done in redundant internal coordinates (2022)
Making redundant internal coordinates   ...  (2022 redundants) done
Following TS mode number                ...     0
Evaluating the initial hessian          ...  (Almloef) done
Evaluating the coordinates              ...  done
Calculating the B-matrix                .... done
Calculating the G-matrix                .... done
Diagonalizing the G-matrix              .... done
Small eigenvalue found = 5.426e-03
Small eigenvalue found = 8.057e-03
Small eigenvalue found = 1.031e-02
Small eigenvalue found = 1.468e-02
Small eigenvalue found = 2.413e-02
Small eigenvalue found = 2.942e-02
The first mode is                       ....  172
The number of degrees of freedom        ....  153

    -----------------------------------------------------------------
                    Redundant Internal Coordinates


    -----------------------------------------------------------------
         Definition                    Initial Value    Approx d2E/dq
    -----------------------------------------------------------------
      1. B(C   1,C   0)                  1.5145         0.395396   
      2. B(C   2,C   1)                  1.4589         0.485037   
      3. B(C   3,C   2)                  1.4052         0.590836   
      4. B(C   4,C   3)                  1.3814         0.644783   
      5. B(C   5,C   4)                  1.3904         0.623818   
      6. B(C   6,C   5)                  1.3869         0.631859   
      7. B(C   7,C   2)                  1.4005         0.601097   
      8. B(C   7,C   6)                  1.3857         0.634821   
      9. B(C   8,C   0)                  1.5175         0.391188   
     10. B(C   9,C   8)                  1.3916         0.621137   
     11. B(C  10,C   9)                  1.3877         0.630033   
     12. B(C  11,C  10)                  1.3862         0.633674   
     13. B(C  12,C  11)                  1.3870         0.631677   
     14. B(C  13,C  12)                  1.3861         0.633700   
     15. B(C  13,C   8)                  1.3945         0.614600   
     16. B(H  14,C   0)                  1.0909         0.358912   
     17. B(H  15,C   0)                  1.0988         0.348591   
     18. B(H  16,C   1)                  1.0843         0.367660   
     19. B(H  17,C   3)                  1.0854         0.366180   
     20. B(H  18,C   4)                  1.0839         0.368262   
     21. B(H  19,C   5)                  1.0834         0.368989   
     22. B(H  20,C   6)                  1.0838         0.368378   
     23. B(H  21,C   7)                  1.0822         0.370559   
     24. B(H  22,C   9)                  1.0811         0.372054   
     25. B(H  23,C  10)                  1.0840         0.368069   
     26. B(H  24,C  11)                  1.0836         0.368694   
     27. B(H  25,C  12)                  1.0840         0.368190   
     28. B(H  26,C  13)                  1.0852         0.366561   
     29. B(C  28,C   1)                  2.1859         0.033568   
     30. B(C  28,C  27)                  1.3845         0.637658   
     31. B(C  28,H  16)                  2.3721         0.003243   
     32. B(C  29,C  28)                  1.4840         0.442370   
     33. B(C  29,H  16)                  2.5666         0.001587   
     34. B(C  29,C   1)                  2.8084         0.003410   
     35. B(C  30,C  29)                  1.3953         0.612828   
     36. B(C  30,H  16)                  2.7403         0.000839   
     37. B(C  31,C  30)                  1.3859         0.634294   
     38. B(C  32,C  31)                  1.3869         0.632045   
     39. B(C  33,C  32)                  1.3879         0.629681   
     40. B(C  34,C  33)                  1.3854         0.635467   
     41. B(C  34,C  29)                  1.3952         0.612993   
     42. B(C  35,C  27)                  1.4455         0.509593   
     43. B(C  36,C  35)                  1.4028         0.596010   
     44. B(C  37,C  36)                  1.3827         0.641790   
     45. B(C  38,C  37)                  1.3894         0.626082   
     46. B(C  39,C  38)                  1.3893         0.626497   
     47. B(C  40,C  39)                  1.3828         0.641651   
     48. B(C  40,C  35)                  1.4045         0.592387   
     49. B(H  41,C  27)                  1.0839         0.368230   
     50. B(H  42,H  17)                  2.4312         0.000500   
     51. B(H  42,C   1)                  2.3866         0.003075   
     52. B(H  42,H  16)                  2.3587         0.000652   
     53. B(H  42,C  28)                  1.0845         0.367491   
     54. B(H  42,C   3)                  2.7728         0.000744   
     55. B(H  42,C   2)                  2.7712         0.000749   
     56. B(H  43,H  16)                  2.6714         0.000207   
     57. B(H  43,C  30)                  1.0853         0.366348   
     58. B(H  44,C  31)                  1.0838         0.368357   
     59. B(H  45,C  32)                  1.0835         0.368855   
     60. B(H  46,C  33)                  1.0839         0.368239   
     61. B(H  47,C  34)                  1.0829         0.369663   
     62. B(H  48,C   3)                  2.6858         0.001024   
     63. B(H  48,C  36)                  1.0817         0.371204   
     64. B(H  49,C  37)                  1.0839         0.368273   
     65. B(H  50,C  38)                  1.0834         0.368915   
     66. B(H  51,C  39)                  1.0839         0.368249   
     67. B(H  51,H  23)                  4.0758         0.000001   
     68. B(H  52,C  40)                  1.0847         0.367140   
     69. A(C   1,C   0,C   8)          122.2022         0.369812   
     70. A(C   8,C   0,H  15)          107.4490         0.325044   
     71. A(C   8,C   0,H  14)          106.5739         0.326608   
     72. A(C   1,C   0,H  15)          107.1594         0.325616   
     73. A(C   1,C   0,H  14)          107.0519         0.327184   
     74. A(H  14,C   0,H  15)          105.2486         0.289211   
     75. A(H  16,C   1,C  29)           66.0169         0.170666   
     76. A(C   0,C   1,H  16)          111.2011         0.328485   
     77. A(C   0,C   1,C  28)          111.7948         0.250078   
     78. A(C   2,C   1,C  28)          108.1777         0.257703   
     79. A(C   0,C   1,C  29)           95.5161         0.184991   
     80. A(H  16,C   1,C  28)           86.0443         0.226040   
     81. A(C   2,C   1,H  16)          111.2937         0.339822   
     82. A(C   0,C   1,C   2)          122.3887         0.383818   
     83. A(C  28,C   1,C  29)           31.5481         0.143929   
     84. A(C   2,C   1,C  29)          136.9747         0.189535   
     85. A(C   1,C   2,C   3)          118.7652         0.411875   
     86. A(C   1,C   2,C   7)          123.9283         0.413136   
     87. A(C   3,C   2,C   7)          117.3015         0.427940   
     88. A(C   4,C   3,H  17)          119.5227         0.356272   
     89. A(C   2,C   3,H  17)          118.9477         0.351038   
     90. A(C   2,C   3,C   4)          121.5293         0.433365   
     91. A(C   3,C   4,H  18)          119.7473         0.356615   
     92. A(C   3,C   4,C   5)          120.1579         0.437625   
     93. A(C   5,C   4,H  18)          120.0946         0.354620   
     94. A(C   6,C   5,H  19)          120.3499         0.355510   
     95. A(C   4,C   5,H  19)          120.3756         0.354738   
     96. A(C   4,C   5,C   6)          119.2694         0.436031   
     97. A(C   7,C   6,H  20)          119.4730         0.355692   
     98. A(C   5,C   6,C   7)          120.5500         0.437407   
     99. A(C   5,C   6,H  20)          119.9769         0.355410   
    100. A(C   2,C   7,C   6)          121.1350         0.433493   
    101. A(C   6,C   7,H  21)          118.8031         0.356049   
    102. A(C   2,C   7,H  21)          120.0550         0.352770   
    103. A(C   0,C   8,C  13)          117.8449         0.399294   
    104. A(C   0,C   8,C   9)          124.4120         0.400038   
    105. A(C   9,C   8,C  13)          117.7117         0.433526   
    106. A(C   8,C   9,C  10)          121.0597         0.435466   
    107. A(C  10,C   9,H  22)          118.5380         0.355835   
    108. A(C   8,C   9,H  22)          120.3839         0.354977   
    109. A(C   9,C  10,C  11)          120.5155         0.437036   
    110. A(C  11,C  10,H  23)          120.1840         0.355532   
    111. A(C   9,C  10,H  23)          119.2994         0.355185   
    112. A(C  10,C  11,C  12)          119.1528         0.437241   
    113. A(C  12,C  11,H  24)          120.4259         0.355444   
    114. A(C  10,C  11,H  24)          120.4211         0.355635   
    115. A(C  13,C  12,H  25)          119.7224         0.355555   
    116. A(C  11,C  12,H  25)          120.2267         0.355362   
    117. A(C  11,C  12,C  13)          120.0501         0.437245   
    118. A(C  12,C  13,H  26)          119.3516         0.355287   
    119. A(C   8,C  13,H  26)          119.1347         0.353449   
    120. A(C   8,C  13,C  12)          121.5099         0.435091   
    121. A(C  28,C  27,C  35)          126.7120         0.421190   
    122. A(C  35,C  27,H  41)          114.8157         0.342730   
    123. A(C  28,C  27,H  41)          118.4192         0.355937   
    124. A(C   1,C  28,H  42)           86.8741         0.226026   
    125. A(C   1,C  28,C  29)           98.0361         0.254223   
    126. A(C  27,C  28,C  29)          121.2109         0.410722   
    127. A(C   1,C  28,C  27)          112.6990         0.268479   
    128. A(C  29,C  28,H  42)          113.4382         0.334623   
    129. A(C  27,C  28,H  42)          116.9508         0.355816   
    130. A(C   1,C  29,C  34)          113.5452         0.195006   
    131. A(C  30,C  29,C  34)          118.0249         0.432274   
    132. A(C  28,C  29,C  34)          122.9614         0.407862   
    133. A(C   1,C  29,C  30)          104.1873         0.195000   
    134. A(C  28,C  29,C  30)          119.0096         0.407842   
    135. A(C   1,C  29,C  28)           50.4158         0.187462   
    136. A(C  29,C  30,C  31)          121.2311         0.434939   
    137. A(C  31,C  30,H  43)          119.5934         0.355309   
    138. A(C  29,C  30,H  43)          119.1752         0.353242   
    139. A(C  30,C  31,C  32)          120.1022         0.437365   
    140. A(C  32,C  31,H  44)          120.1658         0.355424   
    141. A(C  30,C  31,H  44)          119.7320         0.355639   
    142. A(C  31,C  32,C  33)          119.3072         0.436790   
    143. A(C  33,C  32,H  45)          120.3368         0.355280   
    144. A(C  31,C  32,H  45)          120.3560         0.355506   
    145. A(C  32,C  33,C  34)          120.4927         0.437215   
    146. A(C  34,C  33,H  46)          119.4550         0.355731   
    147. A(C  32,C  33,H  46)          120.0523         0.355179   
    148. A(C  29,C  34,C  33)          120.8416         0.435104   
    149. A(C  33,C  34,H  47)          119.0128         0.355964   
    150. A(C  29,C  34,H  47)          120.1415         0.353797   
    151. A(C  36,C  35,C  40)          117.5553         0.427489   
    152. A(C  27,C  35,C  40)          118.7576         0.415699   
    153. A(C  27,C  35,C  36)          123.6840         0.416150   
    154. A(C  35,C  36,C  37)          121.0226         0.433682   
    155. A(C  37,C  36,H  48)          118.9235         0.356815   
    156. A(C  35,C  36,H  48)          120.0514         0.352366   
    157. A(C  36,C  37,C  38)          120.5431         0.437544   
    158. A(C  38,C  37,H  49)          120.0710         0.354840   
    159. A(C  36,C  37,H  49)          119.3858         0.356335   
    160. A(C  37,C  38,C  39)          119.3439         0.435646   
    161. A(C  39,C  38,H  50)          120.3494         0.354984   
    162. A(C  37,C  38,H  50)          120.3067         0.354945   
    163. A(C  38,C  39,C  40)          120.2067         0.437579   
    164. A(C  40,C  39,H  51)          119.7424         0.356318   
    165. A(C  38,C  39,H  51)          120.0509         0.354876   
    166. A(C  35,C  40,C  39)          121.3197         0.433190   
    167. A(C  39,C  40,H  52)          119.8365         0.356135   
    168. A(C  35,C  40,H  52)          118.8422         0.351349   
    169. D(H  16,C   1,C   0,H  15)    -96.6806         0.013895   
    170. D(C  28,C   1,C   0,C   8)     44.5685         0.013895   
    171. D(C   2,C   1,C   0,C   8)    -86.0884         0.013895   
    172. D(C   2,C   1,C   0,H  15)     38.3374         0.013895   
    173. D(C   2,C   1,C   0,H  14)    150.8337         0.013895   
    174. D(C  28,C   1,C   0,H  14)    -78.5094         0.013895   
    175. D(H  16,C   1,C   0,H  14)     15.8158         0.013895   
    176. D(H  16,C   1,C   0,C   8)    138.8936         0.013895   
    177. D(C   7,C   2,C   1,C  28)   -112.9365         0.020925   
    178. D(C   3,C   2,C   1,C  28)     67.8970         0.020925   
    179. D(C   7,C   2,C   1,H  16)    154.1948         0.020925   
    180. D(C   7,C   2,C   1,C  29)   -128.6182         0.020925   
    181. D(C   3,C   2,C   1,H  16)    -24.9717         0.020925   
    182. D(C   3,C   2,C   1,C  29)     52.2154         0.020925   
    183. D(C   3,C   2,C   1,C   0)   -159.9536         0.020925   
    184. D(C   7,C   2,C   1,C   0)     19.2128         0.020925   
    185. D(C   4,C   3,C   2,C   7)      2.3734         0.029884   
    186. D(C   4,C   3,C   2,C   1)   -178.4049         0.029884   
    187. D(H  17,C   3,C   2,C   7)   -177.7905         0.029884   
    188. D(H  17,C   3,C   2,C   1)      1.4312         0.029884   
    189. D(H  18,C   4,C   3,H  17)     -0.2368         0.033800   
    190. D(C   5,C   4,C   3,H  17)    179.6119         0.033800   
    191. D(C   5,C   4,C   3,C   2)     -0.5529         0.033800   
    192. D(H  18,C   4,C   3,C   2)    179.5984         0.033800   
    193. D(H  19,C   5,C   4,H  18)     -0.6326         0.026948   
    194. D(H  19,C   5,C   4,C   3)    179.5192         0.026948   
    195. D(C   6,C   5,C   4,H  18)    178.5447         0.026948   
    196. D(C   6,C   5,C   4,C   3)     -1.3034         0.026948   
    197. D(H  20,C   6,C   5,C   4)   -178.5708         0.027692   
    198. D(C   7,C   6,C   5,H  19)   -179.5571         0.027692   
    199. D(C   7,C   6,C   5,C   4)      1.2653         0.027692   
    200. D(H  20,C   6,C   5,H  19)      0.6068         0.027692   
    201. D(H  21,C   7,C   6,H  20)      1.4297         0.027970   
    202. D(H  21,C   7,C   6,C   5)   -178.4073         0.027970   
    203. D(C   2,C   7,C   6,C   5)      0.6352         0.027970   
    204. D(C   2,C   7,C   6,H  20)   -179.5278         0.027970   
    205. D(H  21,C   7,C   2,C   1)     -2.5541         0.027064   
    206. D(C   6,C   7,C   2,C   3)     -2.4071         0.027064   
    207. D(C   6,C   7,C   2,C   1)    178.4152         0.027064   
    208. D(H  21,C   7,C   2,C   3)    176.6236         0.027064   
    209. D(C  13,C   8,C   0,H  14)    -20.0669         0.011381   
    210. D(C  13,C   8,C   0,C   1)   -143.3656         0.011381   
    211. D(C   9,C   8,C   0,H  15)    -85.5678         0.011381   
    212. D(C   9,C   8,C   0,H  14)    162.0248         0.011381   
    213. D(C   9,C   8,C   0,C   1)     38.7261         0.011381   
    214. D(H  22,C   9,C   8,C  13)    178.2342         0.026703   
    215. D(H  22,C   9,C   8,C   0)     -3.8550         0.026703   
    216. D(C  10,C   9,C   8,C  13)     -0.1825         0.026703   
    217. D(C  10,C   9,C   8,C   0)    177.7284         0.026703   
    218. D(H  23,C  10,C   9,H  22)      1.3507         0.027522   
    219. D(H  23,C  10,C   9,C   8)    179.7958         0.027522   
    220. D(C  11,C  10,C   9,H  22)   -178.2844         0.027522   
    221. D(C  11,C  10,C   9,C   8)      0.1608         0.027522   
    222. D(H  24,C  11,C  10,H  23)      0.1908         0.027862   
    223. D(H  24,C  11,C  10,C   9)    179.8226         0.027862   
    224. D(C  12,C  11,C  10,H  23)   -179.6660         0.027862   
    225. D(C  12,C  11,C  10,C   9)     -0.0342         0.027862   
    226. D(H  25,C  12,C  11,H  24)     -0.2393         0.027675   
    227. D(H  25,C  12,C  11,C  10)    179.6175         0.027675   
    228. D(C  13,C  12,C  11,H  24)   -179.9202         0.027675   
    229. D(C  13,C  12,C  11,C  10)     -0.0635         0.027675   
    230. D(C  12,C  13,C   8,C   9)      0.0841         0.026111   
    231. D(C  12,C  13,C   8,C   0)   -177.9667         0.026111   
    232. D(H  26,C  13,C  12,H  25)     -0.3531         0.027864   
    233. D(H  26,C  13,C  12,C  11)    179.3295         0.027864   
    234. D(C   8,C  13,C  12,H  25)   -179.6448         0.027864   
    235. D(C   8,C  13,C  12,C  11)      0.0378         0.027864   
    236. D(H  26,C  13,C   8,C   9)   -179.2091         0.026111   
    237. D(H  26,C  13,C   8,C   0)      2.7401         0.026111   
    238. D(C   1,C  28,C  27,H  41)     97.2420         0.033001   
    239. D(C   1,C  28,C  27,C  35)    -79.9606         0.033001   
    240. D(H  42,C  28,C  27,H  41)   -164.3416         0.033001   
    241. D(H  42,C  28,C  27,C  35)     18.4558         0.033001   
    242. D(C  29,C  28,C  27,H  41)    -18.2643         0.033001   
    243. D(C  29,C  28,C  27,C  35)    164.5331         0.033001   
    244. D(H  42,C  28,C   1,C   2)    -46.1199         0.001581   
    245. D(H  42,C  28,C   1,C   0)    176.2767         0.001581   
    246. D(C  29,C  28,C   1,H  16)    -48.2339         0.001581   
    247. D(C  29,C  28,C   1,C   2)   -159.3605         0.001581   
    248. D(C  29,C  28,C   1,C   0)     63.0361         0.001581   
    249. D(C  27,C  28,C   1,C  29)   -128.7793         0.001581   
    250. D(C  27,C  28,C   1,H  16)   -177.0131         0.001581   
    251. D(C  27,C  28,C   1,C   2)     71.8602         0.001581   
    252. D(C  27,C  28,C   1,C   0)    -65.7432         0.001581   
    253. D(C   1,C  29,C  28,H  42)    -90.0678         0.017354   
    254. D(C   1,C  29,C  28,C  27)    122.7659         0.017354   
    255. D(C  34,C  29,C  28,C   1)    -94.6821         0.017354   
    256. D(C  34,C  29,C  28,H  42)    175.2501         0.017354   
    257. D(C  34,C  29,C  28,C  27)     28.0839         0.017354   
    258. D(C  30,C  29,C  28,C   1)     84.5575         0.017354   
    259. D(C  30,C  29,C  28,H  42)     -5.5103         0.017354   
    260. D(C  30,C  29,C  28,C  27)   -152.6766         0.017354   
    261. D(C  34,C  29,C   1,C   2)    143.5858         0.001501   
    262. D(C  34,C  29,C   1,C   0)     -9.5624         0.001501   
    263. D(C  30,C  29,C   1,C  28)   -116.1056         0.001501   
    264. D(C  30,C  29,C   1,H  16)      9.3659         0.001501   
    265. D(C  30,C  29,C   1,C   2)    -86.7112         0.001501   
    266. D(C  30,C  29,C   1,C   0)    120.1406         0.001501   
    267. D(C  28,C  29,C   1,H  16)    125.4715         0.001501   
    268. D(C  28,C  29,C   1,C   2)     29.3944         0.001501   
    269. D(C  28,C  29,C   1,C   0)   -123.7538         0.001501   
    270. D(H  43,C  30,C  29,C   1)     53.1339         0.032309   
    271. D(H  43,C  30,C  29,C  34)   -179.9009         0.032309   
    272. D(H  43,C  30,C  29,C  28)      0.8219         0.032309   
    273. D(C  31,C  30,C  29,C   1)   -127.0623         0.032309   
    274. D(C  31,C  30,C  29,C  34)     -0.0971         0.032309   
    275. D(C  31,C  30,C  29,C  28)   -179.3743         0.032309   
    276. D(H  44,C  31,C  30,H  43)      0.0366         0.030347   
    277. D(H  44,C  31,C  30,C  29)   -179.7664         0.030347   
    278. D(C  32,C  31,C  30,H  43)   -179.9759         0.030347   
    279. D(C  32,C  31,C  30,C  29)      0.2211         0.030347   
    280. D(H  45,C  32,C  31,H  44)     -0.1709         0.027710   
    281. D(H  45,C  32,C  31,C  30)    179.8416         0.027710   
    282. D(C  33,C  32,C  31,H  44)    179.8161         0.027710   
    283. D(C  33,C  32,C  31,C  30)     -0.1714         0.027710   
    284. D(H  46,C  33,C  32,H  45)     -0.0416         0.027490   
    285. D(H  46,C  33,C  32,C  31)    179.9714         0.027490   
    286. D(C  34,C  33,C  32,H  45)    179.9897         0.027490   
    287. D(C  34,C  33,C  32,C  31)      0.0027         0.027490   
    288. D(C  29,C  34,C  33,C  32)      0.1209         0.028030   
    289. D(H  47,C  34,C  29,C   1)    -56.9941         0.030326   
    290. D(H  47,C  34,C  29,C  30)   -179.3244         0.030326   
    291. D(H  47,C  34,C  29,C  28)     -0.0778         0.030326   
    292. D(C  33,C  34,C  29,C   1)    122.2569         0.030326   
    293. D(C  33,C  34,C  29,C  30)     -0.0734         0.030326   
    294. D(C  29,C  34,C  33,H  46)   -179.8479         0.028030   
    295. D(C  33,C  34,C  29,C  28)    179.1732         0.030326   
    296. D(H  47,C  34,C  33,H  46)     -0.5886         0.028030   
    297. D(H  47,C  34,C  33,C  32)    179.3803         0.028030   
    298. D(C  40,C  35,C  27,H  41)     -1.4642         0.017697   
    299. D(C  40,C  35,C  27,C  28)    175.8253         0.017697   
    300. D(C  36,C  35,C  27,H  41)    179.1983         0.017697   
    301. D(C  36,C  35,C  27,C  28)     -3.5122         0.017697   
    302. D(H  48,C  36,C  35,C  40)    179.5636         0.024471   
    303. D(H  48,C  36,C  35,C  27)     -1.0915         0.024471   
    304. D(C  37,C  36,C  35,C  40)     -1.0285         0.024471   
    305. D(C  37,C  36,C  35,C  27)    178.3164         0.024471   
    306. D(H  49,C  37,C  36,H  48)     -0.0121         0.028629   
    307. D(H  49,C  37,C  36,C  35)   -179.4265         0.028629   
    308. D(C  38,C  37,C  36,H  48)    179.8342         0.028629   
    309. D(C  38,C  37,C  36,C  35)      0.4197         0.028629   
    310. D(H  50,C  38,C  37,H  49)      0.1265         0.027157   
    311. D(H  50,C  38,C  37,C  36)   -179.7187         0.027157   
    312. D(C  39,C  38,C  37,H  49)   -179.7872         0.027157   
    313. D(C  39,C  38,C  37,C  36)      0.3676         0.027157   
    314. D(H  51,C  39,C  38,H  50)     -0.3308         0.027195   
    315. D(H  51,C  39,C  38,C  37)    179.5829         0.027195   
    316. D(C  40,C  39,C  38,H  50)    179.5756         0.027195   
    317. D(C  40,C  39,C  38,C  37)     -0.5108         0.027195   
    318. D(H  52,C  40,C  39,H  51)      0.2394         0.028615   
    319. D(H  52,C  40,C  39,C  38)   -179.6673         0.028615   
    320. D(C  35,C  40,C  39,H  51)    179.7776         0.028615   
    321. D(C  35,C  40,C  39,C  38)     -0.1291         0.028615   
    322. D(H  52,C  40,C  35,C  36)   -179.5716         0.024159   
    323. D(H  52,C  40,C  35,C  27)      1.0502         0.024159   
    324. D(C  39,C  40,C  35,C  36)      0.8858         0.024159   
    325. D(C  39,C  40,C  35,C  27)   -178.4924         0.024159   
    -----------------------------------------------------------------

Number of atoms                         .... 53
Number of degrees of freedom            .... 325


         *************************************************************
         *                GEOMETRY OPTIMIZATION CYCLE   1            *
         *************************************************************
---------------------------------
CARTESIAN COORDINATES (ANGSTROEM)
---------------------------------
  C      1.905760   -1.028429    3.432169
  C      3.137542   -0.157706    3.296497
  C      3.688080    0.220705    1.999511
  C      5.024716    0.648906    1.931163
  C      5.594276    1.051345    0.738691
  C      4.848200    1.029024   -0.434407
  C      3.538740    0.573510   -0.396661
  C      2.967924    0.169041    0.799436
  C      0.501923   -0.452797    3.408276
  C      0.092228    0.586825    2.578888
  C     -1.223244    1.028771    2.581364
  C     -2.161063    0.442754    3.417138
  C     -1.768537   -0.592997    4.251982
  C     -0.453492   -1.031162    4.243290
  H      2.002106   -1.574798    4.371456
  H      1.961500   -1.793741    2.645629
  H      3.918702   -0.474398    3.978625
  H      5.618499    0.664492    2.839658
  H      6.626200    1.382450    0.720287
  H      5.288943    1.351200   -1.370154
  H      2.954246    0.529372   -1.308291
  H      1.952792   -0.205960    0.792219
  H      0.803321    1.085229    1.934885
  H     -1.510548    1.843067    1.925982
  H     -3.187167    0.790962    3.419895
  H     -2.486095   -1.059613    4.917063
  H     -0.156241   -1.834955    4.908969
  C      1.993384    2.497707    4.115150
  C      2.999331    1.641686    4.529891
  C      2.947333    0.979942    5.857149
  C      4.142297    0.619831    6.480964
  C      4.146997   -0.011816    7.714536
  C      2.949967   -0.302391    8.351769
  C      1.753374    0.049066    7.742791
  C      1.751138    0.683565    6.511242
  C      2.054483    3.434492    3.016008
  C      3.204765    3.653553    2.243465
  C      3.191979    4.538910    1.181474
  C      2.036217    5.240274    0.860776
  C      0.890698    5.050038    1.623429
  C      0.900432    4.162906    2.684047
  H      1.036425    2.453129    4.622230
  H      4.007025    1.872050    4.201928
  H      5.083872    0.842958    5.989471
  H      5.089637   -0.277361    8.178864
  H      2.948773   -0.798386    9.315032
  H      0.810781   -0.172682    8.229843
  H      0.803454    0.937894    6.053193
  H      4.118122    3.119331    2.468260
  H      4.093360    4.680878    0.596515
  H      2.029207    5.929662    0.025021
  H     -0.015309    5.596290    1.387596
  H      0.001064    4.014991    3.272177

----------------------------
CARTESIAN COORDINATES (A.U.)
----------------------------
  NO LB      ZA    FRAG     MASS         X           Y           Z
   0 C     6.0000    0    12.011    3.601364   -1.943449    6.485859
   1 C     6.0000    0    12.011    5.929095   -0.298021    6.229477
   2 C     6.0000    0    12.011    6.969461    0.417072    3.778528
   3 C     6.0000    0    12.011    9.495337    1.226255    3.649369
   4 C     6.0000    0    12.011   10.571650    1.986754    1.395924
   5 C     6.0000    0    12.011    9.161770    1.944574   -0.820910
   6 C     6.0000    0    12.011    6.687249    1.083777   -0.749581
   7 C     6.0000    0    12.011    5.608564    0.319441    1.510715
   8 C     6.0000    0    12.011    0.948497   -0.855662    6.440708
   9 C     6.0000    0    12.011    0.174286    1.108939    4.873392
  10 C     6.0000    0    12.011   -2.311596    1.944095    4.878071
  11 C     6.0000    0    12.011   -4.083817    0.836684    6.457455
  12 C     6.0000    0    12.011   -3.342051   -1.120602    8.035082
  13 C     6.0000    0    12.011   -0.856976   -1.948614    8.018656
  14 H     1.0000    0     1.008    3.783432   -2.975937    8.260855
  15 H     1.0000    0     1.008    3.706698   -3.389679    4.999514
  16 H     1.0000    0     1.008    7.405274   -0.896482    7.518512
  17 H     1.0000    0     1.008   10.617424    1.255708    5.366176
  18 H     1.0000    0     1.008   12.521703    2.612452    1.361145
  19 H     1.0000    0     1.008    9.994654    2.553398   -2.589216
  20 H     1.0000    0     1.008    5.582716    1.000368   -2.472312
  21 H     1.0000    0     1.008    3.690242   -0.389208    1.497077
  22 H     1.0000    0     1.008    1.518057    2.050786    3.656403
  23 H     1.0000    0     1.008   -2.854522    3.482892    3.639579
  24 H     1.0000    0     1.008   -6.022873    1.494702    6.462665
  25 H     1.0000    0     1.008   -4.698039   -2.002378    9.291902
  26 H     1.0000    0     1.008   -0.295253   -3.467562    9.276607
  27 C     6.0000    0    12.011    3.766950    4.719982    7.776507
  28 C     6.0000    0    12.011    5.667914    3.102337    8.560253
  29 C     6.0000    0    12.011    5.569652    1.851822   11.068408
  30 C     6.0000    0    12.011    7.827807    1.171311   12.247247
  31 C     6.0000    0    12.011    7.836689   -0.022329   14.578360
  32 C     6.0000    0    12.011    5.574630   -0.571436   15.782556
  33 C     6.0000    0    12.011    3.313397    0.092721   14.631755
  34 C     6.0000    0    12.011    3.309171    1.291751   12.304464
  35 C     6.0000    0    12.011    3.882410    6.490249    5.699429
  36 C     6.0000    0    12.011    6.056128    6.904215    4.239534
  37 C     6.0000    0    12.011    6.031966    8.577297    2.232662
  38 C     6.0000    0    12.011    3.847892    9.902683    1.626631
  39 C     6.0000    0    12.011    1.683175    9.543189    3.067836
  40 C     6.0000    0    12.011    1.701570    7.866752    5.072114
  41 H     1.0000    0     1.008    1.958559    4.635742    8.734749
  42 H     1.0000    0     1.008    7.572180    3.537662    7.940493
  43 H     1.0000    0     1.008    9.607126    1.592960   11.318460
  44 H     1.0000    0     1.008    9.618020   -0.524136   15.455813
  45 H     1.0000    0     1.008    5.572373   -1.508731   17.602859
  46 H     1.0000    0     1.008    1.532154   -0.326322   15.552149
  47 H     1.0000    0     1.008    1.518308    1.772363   11.438877
  48 H     1.0000    0     1.008    7.782123    5.894681    4.664335
  49 H     1.0000    0     1.008    7.735329    8.845577    1.127250
  50 H     1.0000    0     1.008    3.834645   11.205437    0.047283
  51 H     1.0000    0     1.008   -0.028930   10.575455    2.622176
  52 H     1.0000    0     1.008    0.002011    7.587233    6.183518



           ************************************************************
           *        Program running with 16 parallel MPI-processes    *
           *              working on a common directory               *
           ************************************************************
------------------------------------------------------------------------------
                   ___                                                        
                  /   \      - P O W E R E D   B Y -                         
                 /     \                                                     
                 |  |  |   _    _      __       _____    __    __             
                 |  |  |  | |  | |    /  \     |  _  \  |  |  /  |          
                  \  \/   | |  | |   /    \    | | | |  |  | /  /          
                 / \  \   | |__| |  /  /\  \   | |_| |  |  |/  /          
                |  |  |   |  __  | /  /__\  \  |    /   |      \           
                |  |  |   | |  | | |   __   |  |    \   |  |\   \          
                \     /   | |  | | |  |  |  |  | |\  \  |  | \   \       
                 \___/    |_|  |_| |__|  |__|  |_| \__\ |__|  \__/        
                                                                              
                      - O R C A' S   B I G   F R I E N D -                    
                                      &                                       
                       - I N T E G R A L  F E E D E R -                       
                                                                              
 v1 FN, 2020, v2 2021, v3 2022-2024                                           
------------------------------------------------------------------------------


----------------------
SHARK INTEGRAL PACKAGE
----------------------

Number of atoms                             ...     53
Number of basis functions                   ...   1018
Number of shells                            ...    408
Maximum angular momentum                    ...      3
Integral batch strategy                     ... SHARK/LIBINT Hybrid
RI-J (if used) integral strategy            ... SPLIT-RIJ (Revised 2003 algorithm where possible)
Printlevel                                  ...      1
Contraction scheme used                     ... SEGMENTED contraction
Prescreening option                         ... SCHWARTZ
   Thresh                                   ... 2.500e-11
   Tcut                                     ... 2.500e-12
   Tpresel                                  ... 2.500e-12 
Coulomb Range Separation                    ... NOT USED
Exchange Range Separation                   ... Long Range
   Mu parameter                             ... 2.500e-01
   Scaling (regular/separated)              ... 1.957e-01 8.043e-01
Multipole approximations                    ... NOT USED
Finite Nucleus Model                        ... NOT USED
CABS basis                                  ... NOT available
Auxiliary Coulomb fitting basis             ... AVAILABLE
   # of basis functions in Aux-J            ...   1647
   # of shells in Aux-J                     ...    545
   Maximum angular momentum in Aux-J        ...      4
Auxiliary J/K fitting basis                 ... NOT available
Auxiliary Correlation fitting basis         ... NOT available
Auxiliary 'external' fitting basis          ... NOT available

Checking pre-screening integrals            ... done (  0.0 sec) Dimension = 408
Check shell pair data                       ... done (  0.0 sec)
Shell pair information
Shell pair cut-off parameter TPreSel        ...   2.5e-12
Total number of shell pairs                 ...     83436
Shell pairs after pre-screening             ...     59231
Total number of primitive shell pairs       ...    253096
Primitive shell pairs kept                  ...    116471
          la=0 lb=0:  15962 shell pairs
          la=1 lb=0:  17273 shell pairs
          la=1 lb=1:   4748 shell pairs
          la=2 lb=0:   8279 shell pairs
          la=2 lb=1:   4604 shell pairs
          la=2 lb=2:   1148 shell pairs
          la=3 lb=0:   3813 shell pairs
          la=3 lb=1:   2142 shell pairs
          la=3 lb=2:   1020 shell pairs
          la=3 lb=3:    242 shell pairs

Calculating one electron integrals          ... done (  0.1 sec)
Calculating RI/J V-Matrix + Cholesky decomp.... done (  0.1 sec)
Calculating Nuclear repulsion               ... done (  0.0 sec) ENN=   2471.751579900598 Eh

Diagonalization of the overlap matrix:
Smallest eigenvalue                        ... 5.672e-06
Time for diagonalization                   ...    0.099 sec
Threshold for overlap eigenvalues          ... 1.000e-07
Number of eigenvalues below threshold      ... 0
Time for construction of square roots      ...    0.087 sec
Total time needed                          ...    0.193 sec

-------------------
DFT GRID GENERATION
-------------------

General Integration Accuracy     IntAcc      ... 4.388
Radial Grid Type                 RadialGrid  ... OptM3 with GC (2021)
Angular Grid (max. ang.)         AngularGrid ... 4 (Lebedev-302)
Angular grid pruning method      GridPruning ... 4 (adaptive)
Weight generation scheme         WeightScheme... mBecke (2022)
Basis function cutoff            BFCut       ... 1.0000e-11
Integration weight cutoff        WCut        ... 1.0000e-14
Partially contracted basis set               ... off
Rotationally invariant grid construction     ... off
Angular grids for H and He will be reduced by one unit

Total number of grid points                  ...   244966
Total number of batches                      ...     3858
Average number of points per batch           ...       63
Average number of grid points per atom       ...     4622

--------------------
COSX GRID GENERATION
--------------------

GRIDX 1
-------
General Integration Accuracy     IntAcc      ... 3.816
Radial Grid Type                 RadialGrid  ... OptM3 with GC (2021)
Angular Grid (max. ang.)         AngularGrid ... 1 (Lebedev-50)
Angular grid pruning method      GridPruning ... 4 (adaptive)
Weight generation scheme         WeightScheme... mBecke (2022)
Basis function cutoff            BFCut       ... 1.0000e-11
Integration weight cutoff        WCut        ... 1.0000e-14
Partially contracted basis set               ... on
Rotationally invariant grid construction     ... off
Angular grids for H and He will be reduced by one unit

Total number of grid points                  ...    31074
Total number of batches                      ...      268
Average number of points per batch           ...      115
Average number of grid points per atom       ...      586
UseSFitting                                  ... on

GRIDX 2
-------
General Integration Accuracy     IntAcc      ... 4.020
Radial Grid Type                 RadialGrid  ... OptM3 with GC (2021)
Angular Grid (max. ang.)         AngularGrid ... 2 (Lebedev-110)
Angular grid pruning method      GridPruning ... 4 (adaptive)
Weight generation scheme         WeightScheme... mBecke (2022)
Basis function cutoff            BFCut       ... 1.0000e-11
Integration weight cutoff        WCut        ... 1.0000e-14
Partially contracted basis set               ... on
Rotationally invariant grid construction     ... off
Angular grids for H and He will be reduced by one unit

Total number of grid points                  ...    66421
Total number of batches                      ...      548
Average number of points per batch           ...      121
Average number of grid points per atom       ...     1253
UseSFitting                                  ... on

GRIDX 3
-------
General Integration Accuracy     IntAcc      ... 4.338
Radial Grid Type                 RadialGrid  ... OptM3 with GC (2021)
Angular Grid (max. ang.)         AngularGrid ... 3 (Lebedev-194)
Angular grid pruning method      GridPruning ... 4 (adaptive)
Weight generation scheme         WeightScheme... mBecke (2022)
Basis function cutoff            BFCut       ... 1.0000e-11
Integration weight cutoff        WCut        ... 1.0000e-14
Partially contracted basis set               ... on
Rotationally invariant grid construction     ... off
Angular grids for H and He will be reduced by one unit

Total number of grid points                  ...   144512
Total number of batches                      ...     1154
Average number of points per batch           ...      125
Average number of grid points per atom       ...     2727
UseSFitting                                  ... on
Initializing property integral containers    ... done (  0.0 sec)

SHARK setup successfully completed in   4.8 seconds

Maximum memory used throughout the entire STARTUP-calculation: 110.0 MB


           ************************************************************
           *        Program running with 16 parallel MPI-processes    *
           *              working on a common directory               *
           ************************************************************
Loading Hartree-Fock densities                     ... done
Calculating cut-offs                               ... done
Initializing the effective Hamiltonian             ... done
Setting up the integral package (SHARK)            ... done
Starting the Coulomb interaction                   ... done (   0.5 sec)
Making the grid                                    ... done (   0.3 sec)
Mapping shells                                     ... done
Starting the XC term evaluation                    ... done (   0.4 sec)
  promolecular density results
     # of electrons  =    192.984182750
     EX              =   -150.593027002
     EC              =     -6.420042214
     EX+EC           =   -157.013069217
Transforming the Hamiltonian                       ... done (   0.1 sec)
Diagonalizing the Hamiltonian                      ... done (   0.1 sec)
Back transforming the eigenvectors                 ... done (   0.0 sec)
Now organizing SCF variables                       ... done
             **** ENERGY FILE WAS UPDATED (PreTS_BCXVYZIMXILZPC-UHFFFAOYSA-N.en.tmp) ****
Finished Guess after   2.4 sec
Maximum memory used throughout the entire GUESS-calculation: 97.1 MB


           ************************************************************
           *        Program running with 16 parallel MPI-processes    *
           *              working on a common directory               *
           ************************************************************
--------------------
CPCM SOLVATION MODEL
--------------------
CPCM parameters:
  Epsilon                                         ...       2.2790
  Refrac                                          ...       1.5011
  Rsolv                                           ...       1.3000
  Surface type                                    ... GAUSSIAN VDW
  Discretization scheme                           ... Constant charge density
    Threshold for H atoms                         ...       5.0000 (charges/Ang^2)
    Threshold for non-H atoms                     ...       5.0000 (charges/Ang^2)
  Epsilon function type                           ...         CPCM
Solvent:                                          ... BENZENE
Radii:
  Scheme                                          ... Element-dependent radii
  Radius for C  used is    3.8550 Bohr (=   2.0400 Ang.)
  Radius for H  used is    2.4944 Bohr (=   1.3200 Ang.)
Calculating surface                               ...        done! (  0.0s)
Cavity surface points                             ...         4488
Cavity Volume                                     ...    3147.0224
Cavity Surface-area                               ...    1477.1955
Calculating surface distance matrix               ...        done! (  0.1s)
Performing Cholesky decomposition & store         ...        done! (  0.5s)
Overall time for CPCM initialization              ...                 0.6s

----------------------------------------D-I-I-S--------------------------------------------
Iteration    Energy (Eh)           Delta-E    RMSDP     MaxDP     DIISErr   Damp  Time(sec)
-------------------------------------------------------------------------------------------
               ***  Starting incremental Fock matrix formation  ***
    1    -1081.3997784391312962     0.00e+00  3.85e-04  2.73e-02  6.71e-02  0.700  29.3
    2    -1081.6289523716218355    -2.29e-01  3.13e-04  1.82e-02  4.12e-02  0.700  15.3
                               ***Turning on AO-DIIS***
    3    -1081.7570025718832767    -1.28e-01  2.13e-04  1.16e-02  2.28e-02  0.700  14.2
    4    -1081.8347865258169804    -7.78e-02  5.09e-04  2.84e-02  1.49e-02  0.000  13.9
    5    -1082.0026683166156545    -1.68e-01  6.21e-05  3.76e-03  3.60e-03  0.000  14.5
                              *** Initializing SOSCF ***
---------------------------------------S-O-S-C-F--------------------------------------
Iteration    Energy (Eh)           Delta-E    RMSDP     MaxDP     MaxGrad    Time(sec)
--------------------------------------------------------------------------------------
    6    -1082.0038619495053354    -1.19e-03  3.51e-05  2.38e-03  2.93e-03    13.6
               *** Restarting incremental Fock matrix formation ***
    7    -1082.0045827490439478    -7.21e-04  9.73e-05  4.78e-03  3.92e-03    29.2
    8    -1082.0051651650719577    -5.82e-04  1.02e-04  4.56e-03  2.62e-03    22.3
    9    -1082.0055874215759104    -4.22e-04  7.68e-05  3.89e-03  1.88e-03    23.1
   10    -1082.0056901929515334    -1.03e-04  8.92e-06  1.00e-03  1.11e-03    21.6
   11    -1082.0057110833254228    -2.09e-05  8.18e-06  3.99e-04  4.32e-04    19.0
   12    -1082.0057227735146625    -1.17e-05  5.75e-06  3.21e-04  2.21e-04    18.6
   13    -1082.0057289132237202    -6.14e-06  2.73e-06  1.65e-04  1.35e-04    18.1
   14    -1082.0057302373957100    -1.32e-06  1.98e-06  1.59e-04  5.80e-05    16.8
   15    -1082.0057305884038215    -3.51e-07  9.31e-07  3.84e-05  2.84e-05    15.8
   16    -1082.0057306837916258    -9.54e-08  9.38e-07  6.22e-05  1.33e-05    14.5
   17    -1082.0057306725830131     1.12e-08  9.77e-07  9.35e-05  6.79e-06    13.9
   18    -1082.0057307634197059    -9.08e-08  1.36e-06  9.97e-05  3.71e-06    12.7
   19    -1082.0057307694191877    -6.00e-09  1.15e-06  8.18e-05  2.83e-06    13.5
                 **** Energy Check signals convergence ****

               *****************************************************
               *                     SUCCESS                       *
               *           SCF CONVERGED AFTER  19 CYCLES          *
               *****************************************************

Recomputing exchange energy using gridx3       ... done (   47.245 sec)
Old exchange energy                            :    -50.772601537 Eh
New exchange energy                            :    -50.772601456 Eh
Exchange energy change after final integration :      0.000000081 Eh
Total energy after final integration           :  -1082.005730689 Eh
             **** ENERGY FILE WAS UPDATED (PreTS_BCXVYZIMXILZPC-UHFFFAOYSA-N.en.tmp) ****

----------------
TOTAL SCF ENERGY
----------------

Total Energy       :      -1082.00573068872109 Eh          -29442.87278 eV

Components:
Nuclear Repulsion  :       2471.75157990059824 Eh           67259.77991 eV
Electronic Energy  :      -3553.74850792736106 Eh          -96702.41316 eV
One Electron Energy:      -6376.41035263366030 Eh         -173510.94682 eV
Two Electron Energy:       2822.66184470629923 Eh           76808.53366 eV
CPCM Dielectric    :         -0.00880274265633 Eh              -0.23953 eV

Virial components:
Potential Energy   :      -2159.03495729156202 Eh          -58750.32800 eV
Kinetic Energy     :       1077.02922660284094 Eh           29307.45522 eV
Virial Ratio       :          2.00462058406862

DFT components:
N(Alpha)           :       96.999915067587 electrons
N(Beta)            :       95.999896081302 electrons
N(Total)           :      192.999811148890 electrons
E(XC)              :     -110.486116959290 Eh       

CPCM Solvation Model Properties:
Surface-charge          :         -0.03924766077537
Corrected charge        :          0.00000000000000
Outlying charge corr.   :          0.00004316282803 Eh               0.00117 eV
Free-energy (cav+disp)  :  This term is not implemented in the current solvation scheme

---------------
SCF CONVERGENCE
---------------

  Last Energy change         ...    5.9995e-09  Tolerance :   1.0000e-08
  Last MAX-Density change    ...    8.1753e-05  Tolerance :   1.0000e-07
  Last RMS-Density change    ...    1.1486e-06  Tolerance :   5.0000e-09
  Last DIIS Error            ...    2.9344e-03  Tolerance :   5.0000e-07
  Last Orbital Gradient      ...    2.8322e-06  Tolerance :   1.0000e-05
  Last Orbital Rotation      ...    1.6550e-05  Tolerance :   1.0000e-05


----------------------
UHF SPIN CONTAMINATION
----------------------

Warning: in a DFT calculation there is little theoretical justification to 
         calculate <S**2> as in Hartree-Fock theory. We will do it anyways
         but you should keep in mind that the values have only limited relevance

Expectation value of <S**2>     :     0.850046
Ideal value S*(S+1) for S=0.5   :     0.750000
Deviation                       :     0.100046

----------------
ORBITAL ENERGIES
----------------
                 SPIN UP ORBITALS
  NO   OCC          E(Eh)            E(eV) 
   0   1.0000     -10.298811      -280.2449 
   1   1.0000     -10.294645      -280.1315 
   2   1.0000     -10.292468      -280.0723 
   3   1.0000     -10.289413      -279.9892 
   4   1.0000     -10.288510      -279.9646 
   5   1.0000     -10.287611      -279.9401 
   6   1.0000     -10.282024      -279.7881 
   7   1.0000     -10.280444      -279.7451 
   8   1.0000     -10.279927      -279.7310 
   9   1.0000     -10.279555      -279.7209 
  10   1.0000     -10.279430      -279.7175 
  11   1.0000     -10.278932      -279.7040 
  12   1.0000     -10.278766      -279.6994 
  13   1.0000     -10.278179      -279.6835 
  14   1.0000     -10.278121      -279.6819 
  15   1.0000     -10.277859      -279.6748 
  16   1.0000     -10.277274      -279.6588 
  17   1.0000     -10.277161      -279.6558 
  18   1.0000     -10.277130      -279.6549 
  19   1.0000     -10.276880      -279.6481 
  20   1.0000     -10.276601      -279.6405 
  21   1.0000     -10.276498      -279.6377 
  22   1.0000     -10.276314      -279.6327 
  23   1.0000     -10.276063      -279.6259 
  24   1.0000     -10.275476      -279.6099 
  25   1.0000     -10.275440      -279.6089 
  26   1.0000     -10.274794      -279.5914 
  27   1.0000     -10.273132      -279.5461 
  28   1.0000      -0.989971       -26.9385 
  29   1.0000      -0.983041       -26.7499 
  30   1.0000      -0.979450       -26.6522 
  31   1.0000      -0.978530       -26.6271 
  32   1.0000      -0.927527       -25.2393 
  33   1.0000      -0.912045       -24.8180 
  34   1.0000      -0.880063       -23.9477 
  35   1.0000      -0.878442       -23.9036 
  36   1.0000      -0.865913       -23.5627 
  37   1.0000      -0.864307       -23.5190 
  38   1.0000      -0.862904       -23.4808 
  39   1.0000      -0.860567       -23.4172 
  40   1.0000      -0.828892       -22.5553 
  41   1.0000      -0.824226       -22.4283 
  42   1.0000      -0.761351       -20.7174 
  43   1.0000      -0.747520       -20.3411 
  44   1.0000      -0.721188       -19.6245 
  45   1.0000      -0.718736       -19.5578 
  46   1.0000      -0.715538       -19.4708 
  47   1.0000      -0.709643       -19.3104 
  48   1.0000      -0.700075       -19.0500 
  49   1.0000      -0.697002       -18.9664 
  50   1.0000      -0.672575       -18.3017 
  51   1.0000      -0.658708       -17.9243 
  52   1.0000      -0.627710       -17.0808 
  53   1.0000      -0.621666       -16.9164 
  54   1.0000      -0.619529       -16.8583 
  55   1.0000      -0.609052       -16.5732 
  56   1.0000      -0.578161       -15.7326 
  57   1.0000      -0.571501       -15.5513 
  58   1.0000      -0.564966       -15.3735 
  59   1.0000      -0.561280       -15.2732 
  60   1.0000      -0.555908       -15.1270 
  61   1.0000      -0.554072       -15.0771 
  62   1.0000      -0.547466       -14.8973 
  63   1.0000      -0.538140       -14.6435 
  64   1.0000      -0.535473       -14.5710 
  65   1.0000      -0.531149       -14.4533 
  66   1.0000      -0.525601       -14.3023 
  67   1.0000      -0.518321       -14.1042 
  68   1.0000      -0.516283       -14.0488 
  69   1.0000      -0.512892       -13.9565 
  70   1.0000      -0.511814       -13.9272 
  71   1.0000      -0.507783       -13.8175 
  72   1.0000      -0.492840       -13.4109 
  73   1.0000      -0.489014       -13.3068 
  74   1.0000      -0.480005       -13.0616 
  75   1.0000      -0.478946       -13.0328 
  76   1.0000      -0.477394       -12.9905 
  77   1.0000      -0.468547       -12.7498 
  78   1.0000      -0.456840       -12.4313 
  79   1.0000      -0.446161       -12.1407 
  80   1.0000      -0.441197       -12.0056 
  81   1.0000      -0.434046       -11.8110 
  82   1.0000      -0.432976       -11.7819 
  83   1.0000      -0.431249       -11.7349 
  84   1.0000      -0.428518       -11.6606 
  85   1.0000      -0.426566       -11.6075 
  86   1.0000      -0.422467       -11.4959 
  87   1.0000      -0.420318       -11.4374 
  88   1.0000      -0.369477       -10.0540 
  89   1.0000      -0.352075        -9.5805 
  90   1.0000      -0.347153        -9.4465 
  91   1.0000      -0.345092        -9.3904 
  92   1.0000      -0.343039        -9.3346 
  93   1.0000      -0.337116        -9.1734 
  94   1.0000      -0.329260        -8.9596 
  95   1.0000      -0.304048        -8.2736 
  96   1.0000      -0.241604        -6.5744 
  97   0.0000       0.018079         0.4920 
  98   0.0000       0.058051         1.5797 
  99   0.0000       0.060408         1.6438 
 100   0.0000       0.061626         1.6769 
 101   0.0000       0.065833         1.7914 
 102   0.0000       0.071299         1.9401 
 103   0.0000       0.078799         2.1442 
 104   0.0000       0.082901         2.2558 
 105   0.0000       0.116695         3.1754 
 106   0.0000       0.126242         3.4352 
 107   0.0000       0.131349         3.5742 

                 SPIN DOWN ORBITALS
  NO   OCC          E(Eh)            E(eV) 
   0   1.0000     -10.297375      -280.2058 
   1   1.0000     -10.292413      -280.0708 
   2   1.0000     -10.291846      -280.0554 
   3   1.0000     -10.289742      -279.9981 
   4   1.0000     -10.289093      -279.9805 
   5   1.0000     -10.288998      -279.9779 
   6   1.0000     -10.282333      -279.7965 
   7   1.0000     -10.280091      -279.7355 
   8   1.0000     -10.279732      -279.7257 
   9   1.0000     -10.279461      -279.7184 
  10   1.0000     -10.279223      -279.7119 
  11   1.0000     -10.278555      -279.6937 
  12   1.0000     -10.277707      -279.6706 
  13   1.0000     -10.277485      -279.6646 
  14   1.0000     -10.277411      -279.6626 
  15   1.0000     -10.277247      -279.6581 
  16   1.0000     -10.277025      -279.6521 
  17   1.0000     -10.276986      -279.6510 
  18   1.0000     -10.276910      -279.6489 
  19   1.0000     -10.276743      -279.6444 
  20   1.0000     -10.276464      -279.6368 
  21   1.0000     -10.275563      -279.6123 
  22   1.0000     -10.275485      -279.6102 
  23   1.0000     -10.275335      -279.6061 
  24   1.0000     -10.275251      -279.6038 
  25   1.0000     -10.274814      -279.5919 
  26   1.0000     -10.274231      -279.5760 
  27   1.0000     -10.273127      -279.5460 
  28   1.0000      -0.988375       -26.8951 
  29   1.0000      -0.982068       -26.7234 
  30   1.0000      -0.978201       -26.6182 
  31   1.0000      -0.977724       -26.6052 
  32   1.0000      -0.923108       -25.1190 
  33   1.0000      -0.907026       -24.6814 
  34   1.0000      -0.878431       -23.9033 
  35   1.0000      -0.877122       -23.8677 
  36   1.0000      -0.864842       -23.5335 
  37   1.0000      -0.864457       -23.5231 
  38   1.0000      -0.861356       -23.4387 
  39   1.0000      -0.860204       -23.4073 
  40   1.0000      -0.825089       -22.4518 
  41   1.0000      -0.820545       -22.3282 
  42   1.0000      -0.754099       -20.5201 
  43   1.0000      -0.743595       -20.2343 
  44   1.0000      -0.720613       -19.6089 
  45   1.0000      -0.718559       -19.5530 
  46   1.0000      -0.714776       -19.4500 
  47   1.0000      -0.709154       -19.2971 
  48   1.0000      -0.698949       -19.0194 
  49   1.0000      -0.696423       -18.9506 
  50   1.0000      -0.669171       -18.2091 
  51   1.0000      -0.656324       -17.8595 
  52   1.0000      -0.626218       -17.0403 
  53   1.0000      -0.621124       -16.9016 
  54   1.0000      -0.617704       -16.8086 
  55   1.0000      -0.605995       -16.4900 
  56   1.0000      -0.576065       -15.6755 
  57   1.0000      -0.570396       -15.5213 
  58   1.0000      -0.564222       -15.3533 
  59   1.0000      -0.560060       -15.2400 
  60   1.0000      -0.555416       -15.1136 
  61   1.0000      -0.553585       -15.0638 
  62   1.0000      -0.544458       -14.8155 
  63   1.0000      -0.537490       -14.6258 
  64   1.0000      -0.534099       -14.5336 
  65   1.0000      -0.528971       -14.3940 
  66   1.0000      -0.523539       -14.2462 
  67   1.0000      -0.518017       -14.0960 
  68   1.0000      -0.515167       -14.0184 
  69   1.0000      -0.512216       -13.9381 
  70   1.0000      -0.510952       -13.9037 
  71   1.0000      -0.506423       -13.7805 
  72   1.0000      -0.490168       -13.3382 
  73   1.0000      -0.484703       -13.1894 
  74   1.0000      -0.478576       -13.0227 
  75   1.0000      -0.476654       -12.9704 
  76   1.0000      -0.473666       -12.8891 
  77   1.0000      -0.467026       -12.7084 
  78   1.0000      -0.454639       -12.3714 
  79   1.0000      -0.445494       -12.1225 
  80   1.0000      -0.437525       -11.9057 
  81   1.0000      -0.433618       -11.7994 
  82   1.0000      -0.431502       -11.7418 
  83   1.0000      -0.430174       -11.7056 
  84   1.0000      -0.427042       -11.6204 
  85   1.0000      -0.425070       -11.5667 
  86   1.0000      -0.420092       -11.4313 
  87   1.0000      -0.410051       -11.1581 
  88   1.0000      -0.353378        -9.6159 
  89   1.0000      -0.349722        -9.5164 
  90   1.0000      -0.344633        -9.3780 
  91   1.0000      -0.341310        -9.2875 
  92   1.0000      -0.339658        -9.2426 
  93   1.0000      -0.335626        -9.1328 
  94   1.0000      -0.327562        -8.9134 
  95   1.0000      -0.290514        -7.9053 
  96   0.0000      -0.017512        -0.4765 
  97   0.0000       0.029441         0.8011 
  98   0.0000       0.058614         1.5950 
  99   0.0000       0.062752         1.7076 
 100   0.0000       0.063676         1.7327 
 101   0.0000       0.066187         1.8010 
 102   0.0000       0.073661         2.0044 
 103   0.0000       0.080413         2.1882 
 104   0.0000       0.102191         2.7808 
 105   0.0000       0.117072         3.1857 
 106   0.0000       0.126876         3.4525 
*Only the first 10 virtual orbitals were printed.
Total SCF time: 0 days 0 hours 6 min 29 sec 
Finished LeanSCF after 390.3 sec

Maximum memory used throughout the entire LEANSCF-calculation: 210.6 MB


           ************************************************************
           *        Program running with 16 parallel MPI-processes    *
           *              working on a common directory               *
           ************************************************************

------------------------------------------------------------------------------
                         ORCA PROPERTY INTEGRAL CALCULATIONS
------------------------------------------------------------------------------

GBWName                                   ... PreTS_BCXVYZIMXILZPC-UHFFFAOYSA-N.gbw
Number of atoms                           ...     53
Number of basis functions                 ...   1018
Max core memory                           ...   1000 MB

Dipole integrals                          ... YES
Quadrupole integrals                      ...  NO
Linear momentum integrals                 ...  NO
Angular momentum integrals                ...  NO
Higher moments length integrals           ...  NO
Higher moments velocity integrals         ...  NO
Kinetic energy integrals                  ...  NO
GIAO right hand sides                     ...  NO
GIAO dipole derivative integrals          ...  NO
SOC integrals                             ...  NO
EPR diamagnetic integrals (GIAO)          ...  NO
EPR gauge integrals                       ...  NO
Field gradient integrals                  ...  NO (   0 nuclei)
Spin-dipole/Fermi contact integrals       ...  NO (   0 nuclei)
Contact density integrals                 ...  NO (   0 nuclei)
Nucleus-orbit integrals                   ...  NO (   0 nuclei)
Geometric perturbations                   ...  NO (  53 nuclei)

Choice of electric origin   ... Center of mass
Position of electric origin ... (  4.0917,  2.3326,  6.3928) 
Choice of magnetic origin   ... GIAO
Position of magnetic origin ... (  0.0000,  0.0000,  0.0000) 

Calculating integrals                     ... Electric Dipole (Length)     done (  0.1 sec)

Property integrals calculated in   0.1 sec

Maximum memory used throughout the entire PROPINT-calculation: 113.1 MB


-------------------------------------------------------------------------------
                          DFT DISPERSION CORRECTION                            
                                                                               
                              DFTD3 V3.1  Rev 1                                
                              USING zero damping                               
-------------------------------------------------------------------------------
-------------------------   ----------------
Dispersion correction           -0.033680070
-------------------------   ----------------


-------------------------   --------------------
FINAL SINGLE POINT ENERGY     -1082.039410758897
-------------------------   --------------------



           ************************************************************
           *        Program running with 16 parallel MPI-processes    *
           *              working on a common directory               *
           ************************************************************
------------------------------------------------------------------------------
                         ORCA SCF GRADIENT CALCULATION
------------------------------------------------------------------------------

Nuc. rep. gradient        (SHARK) ... done (  0.0 sec)
HCore & Overlap gradient  (SHARK) ... done (  0.9 sec)
Split-RIJ-J gradient      (SHARK) ... done (  3.8 sec)
COSX-gradient                     ... done ( 58.8 sec)
XC gradient                       ... done (  9.1 sec)
CPCM gradient                     ... done (  2.7 sec)
Dispersion correction             ... done (  0.0 sec)

-------------------
DISPERSION GRADIENT
-------------------

   1   C   :   -0.000059289   -0.000064988   -0.000081728
   2   C   :    0.000044170   -0.000035960   -0.000062827
   3   C   :    0.000028876   -0.000031475   -0.000000834
   4   C   :    0.000167424    0.000039851   -0.000003309
   5   C   :    0.000215344   -0.000088308   -0.000178799
   6   C   :    0.000147555   -0.000127457   -0.000203070
   7   C   :    0.000146320   -0.000155176   -0.000326693
   8   C   :   -0.000060567   -0.000242779   -0.000150792
   9   C   :   -0.000040556   -0.000106994   -0.000004414
  10   C   :   -0.000005656   -0.000069483   -0.000085267
  11   C   :   -0.000396787   -0.000069705   -0.000076616
  12   C   :   -0.000284483   -0.000103196   -0.000048166
  13   C   :   -0.000296963   -0.000111777   -0.000033356
  14   C   :   -0.000170495   -0.000196882    0.000018902
  15   H   :   -0.000072931   -0.000239971   -0.000024468
  16   H   :    0.000040001   -0.000038023   -0.000111044
  17   H   :    0.000160363    0.000035720    0.000076650
  18   H   :    0.000117766   -0.000069698   -0.000031084
  19   H   :    0.000109967   -0.000038224   -0.000055331
  20   H   :    0.000043054   -0.000035281   -0.000067752
  21   H   :    0.000019515   -0.000043690   -0.000114383
  22   H   :   -0.000052307   -0.000149125    0.000012194
  23   H   :   -0.000026372   -0.000095524   -0.000049630
  24   H   :   -0.000203826   -0.000065949   -0.000063651
  25   H   :   -0.000060249   -0.000009254   -0.000004304
  26   H   :   -0.000077784   -0.000031653    0.000001198
  27   H   :   -0.000100011   -0.000158177   -0.000044382
  28   C   :   -0.000087056    0.000032756    0.000013824
  29   C   :    0.000149446   -0.000023431    0.000055181
  30   C   :    0.000062167   -0.000033728    0.000143781
  31   C   :    0.000125555   -0.000014294    0.000115135
  32   C   :    0.000086373   -0.000019620    0.000236322
  33   C   :    0.000043502   -0.000012903    0.000195175
  34   C   :    0.000043444   -0.000000843    0.000353404
  35   C   :    0.000002246    0.000045880    0.000135230
  36   C   :   -0.000018645    0.000246849    0.000023023
  37   C   :    0.000104771    0.000205578    0.000047755
  38   C   :   -0.000013702    0.000370412   -0.000073258
  39   C   :   -0.000025561    0.000220510   -0.000052855
  40   C   :   -0.000014411    0.000275117   -0.000069313
  41   C   :   -0.000084592    0.000290469    0.000008781
  42   H   :   -0.000005532    0.000158209    0.000131651
  43   H   :    0.000145235   -0.000047193   -0.000066158
  44   H   :    0.000071559    0.000020699    0.000100892
  45   H   :    0.000033618   -0.000012221    0.000050838
  46   H   :    0.000005246   -0.000010839    0.000038182
  47   H   :   -0.000002452    0.000002197    0.000135244
  48   H   :    0.000020101    0.000082119    0.000134926
  49   H   :    0.000062373    0.000039159    0.000087489
  50   H   :   -0.000000394    0.000205971   -0.000026586
  51   H   :   -0.000005218    0.000042434   -0.000021943
  52   H   :   -0.000019172    0.000073567   -0.000025669
  53   H   :   -0.000010980    0.000166322    0.000041903

Difference to translation invariance:
           :   -0.0000000000    0.0000000000    0.0000000000

Difference to rotation invariance:
           :   -0.0000000000    0.0000000000    0.0000000000

Norm of the Dispersion gradient    ...    0.0015080350
RMS gradient                       ...    0.0001195950
MAX gradient                       ...    0.0003967870

------------------
CARTESIAN GRADIENT
------------------

   1   C   :   -0.000008594    0.000117496    0.000056718
   2   C   :   -0.000130939   -0.000122393    0.000046947
   3   C   :    0.000254679   -0.000374239   -0.000038198
   4   C   :    0.000163294    0.000139370   -0.000029518
   5   C   :   -0.000168104   -0.000122293   -0.000096604
   6   C   :   -0.000088309   -0.000164677    0.000119404
   7   C   :    0.000221754    0.000065653    0.000056295
[...]
141:   3188.51   0.000886    4.48  0.000087  (-0.001183 -0.006108  0.006929)
142:   3194.59   0.000956    4.83  0.000093  (-0.004132 -0.005905  0.006441)
143:   3194.78   0.000999    5.05  0.000098  ( 0.008530  0.001852 -0.004621)
144:   3196.47   0.000133    0.67  0.000013  ( 0.001383 -0.002922 -0.001578)
145:   3196.66   0.000291    1.47  0.000028  ( 0.005061 -0.000954 -0.001371)
146:   3197.86   0.001895    9.58  0.000185  ( 0.007948  0.005989 -0.009269)
147:   3204.42   0.003630   18.35  0.000354  (-0.003579 -0.014252  0.011730)
148:   3205.34   0.004231   21.38  0.000412  (-0.010825  0.002901 -0.016922)
149:   3205.79   0.005957   30.10  0.000580  (-0.022637 -0.001497  0.008073)
150:   3206.00   0.001308    6.61  0.000127  ( 0.009770 -0.003158 -0.004679)
151:   3217.40   0.006266   31.67  0.000608  (-0.018862 -0.007922  0.013757)
152:   3217.49   0.006305   31.86  0.000611  ( 0.023357 -0.003776  0.007188)
153:   3218.72   0.000096    0.49  0.000009  (-0.002734  0.000146  0.001359)
154:   3218.88   0.005681   28.71  0.000551  ( 0.008001 -0.016631  0.014496)
155:   3223.79   0.002301   11.63  0.000223  (-0.006603 -0.003699  0.012861)
156:   3225.19   0.001240    6.27  0.000120  (-0.000588 -0.005194 -0.009626)
157:   3233.82   0.001050    5.31  0.000101  ( 0.009197  0.004055  0.000555)
158:   3239.78   0.000524    2.65  0.000050  ( 0.001187 -0.002958  0.006347)

* The epsilon (eps) is given for a Dirac delta lineshape.
** The dipole moment derivative (T) already includes vibrational overlap.

The first frequency considered to be a vibration is 7
The total number of vibrations considered is 152


--------------------------
THERMOCHEMISTRY AT 298.15K
--------------------------

Temperature         ...   298.15 K
Pressure            ...     1.00 atm
Total Mass          ...   361.51 AMU
Quasi RRHO          ...     True
Cut-Off Frequency   ...     1.00 cm^-1

Throughout the following assumptions are being made:
  (1) The electronic state is orbitally nondegenerate
      but the spin degeneracy is treated
  (2) There are no thermally accessible electronically excited states
  (3) Hindered rotations indicated by low frequency modes are not
      treated as such but are treated as vibrations and this may
      cause some error
  (4) All equations used are the standard statistical mechanics
      equations for an ideal gas
  (5) All vibrations are strictly harmonic

freq.       6.84  E(vib)   ...       0.58 
freq.      13.99  E(vib)   ...       0.57 
freq.      37.91  E(vib)   ...       0.54 
freq.      42.32  E(vib)   ...       0.53 
freq.      48.37  E(vib)   ...       0.53 
freq.      61.04  E(vib)   ...       0.51 
freq.      68.08  E(vib)   ...       0.50 
freq.      80.08  E(vib)   ...       0.49 
freq.      89.28  E(vib)   ...       0.47 
freq.      96.14  E(vib)   ...       0.47 
freq.     117.95  E(vib)   ...       0.44 
freq.     164.57  E(vib)   ...       0.39 
freq.     176.00  E(vib)   ...       0.38 
freq.     194.35  E(vib)   ...       0.36 
freq.     208.78  E(vib)   ...       0.34 
freq.     232.43  E(vib)   ...       0.32 
freq.     244.39  E(vib)   ...       0.31 
freq.     276.06  E(vib)   ...       0.28 
freq.     282.36  E(vib)   ...       0.28 
freq.     315.88  E(vib)   ...       0.25 
freq.     369.55  E(vib)   ...       0.21 
freq.     421.40  E(vib)   ...       0.18 
freq.     422.18  E(vib)   ...       0.18 
freq.     423.48  E(vib)   ...       0.18 
freq.     432.31  E(vib)   ...       0.18 
freq.     468.66  E(vib)   ...       0.16 
freq.     491.60  E(vib)   ...       0.14 
freq.     505.41  E(vib)   ...       0.14 
freq.     511.29  E(vib)   ...       0.14 
freq.     527.54  E(vib)   ...       0.13 
freq.     536.41  E(vib)   ...       0.12 
freq.     551.97  E(vib)   ...       0.12 
freq.     569.95  E(vib)   ...       0.11 
freq.     631.93  E(vib)   ...       0.09 
freq.     633.92  E(vib)   ...       0.09 
freq.     637.82  E(vib)   ...       0.09 
freq.     638.22  E(vib)   ...       0.09 
freq.     653.43  E(vib)   ...       0.08 
freq.     658.58  E(vib)   ...       0.08 
freq.     711.89  E(vib)   ...       0.07 
freq.     719.28  E(vib)   ...       0.07 
freq.     723.47  E(vib)   ...       0.07 
freq.     731.31  E(vib)   ...       0.06 
freq.     744.19  E(vib)   ...       0.06 
freq.     764.78  E(vib)   ...       0.06 
freq.     772.90  E(vib)   ...       0.05 
freq.     784.16  E(vib)   ...       0.05 
freq.     793.96  E(vib)   ...       0.05 
freq.     807.73  E(vib)   ...       0.05 
freq.     833.73  E(vib)   ...       0.04 
freq.     845.95  E(vib)   ...       0.04 
freq.     865.67  E(vib)   ...       0.04 
freq.     869.17  E(vib)   ...       0.04 
freq.     877.38  E(vib)   ...       0.04 
freq.     879.35  E(vib)   ...       0.04 
freq.     884.02  E(vib)   ...       0.04 
freq.     902.37  E(vib)   ...       0.03 
freq.     931.46  E(vib)   ...       0.03 
freq.     945.58  E(vib)   ...       0.03 
freq.     952.55  E(vib)   ...       0.03 
freq.     953.29  E(vib)   ...       0.03 
freq.     976.10  E(vib)   ...       0.03 
freq.    1007.13  E(vib)   ...       0.02 
freq.    1009.33  E(vib)   ...       0.02 
freq.    1013.07  E(vib)   ...       0.02 
freq.    1013.42  E(vib)   ...       0.02 
freq.    1017.19  E(vib)   ...       0.02 
freq.    1018.12  E(vib)   ...       0.02 
freq.    1019.28  E(vib)   ...       0.02 
freq.    1021.04  E(vib)   ...       0.02 
freq.    1021.69  E(vib)   ...       0.02 
freq.    1024.21  E(vib)   ...       0.02 
freq.    1025.17  E(vib)   ...       0.02 
freq.    1026.01  E(vib)   ...       0.02 
freq.    1032.18  E(vib)   ...       0.02 
freq.    1058.60  E(vib)   ...       0.02 
freq.    1059.99  E(vib)   ...       0.02 
freq.    1063.95  E(vib)   ...       0.02 
freq.    1064.95  E(vib)   ...       0.02 
freq.    1086.62  E(vib)   ...       0.02 
freq.    1110.90  E(vib)   ...       0.01 
freq.    1114.20  E(vib)   ...       0.01 
freq.    1117.30  E(vib)   ...       0.01 
freq.    1122.92  E(vib)   ...       0.01 
freq.    1173.30  E(vib)   ...       0.01 
freq.    1173.70  E(vib)   ...       0.01 
freq.    1173.78  E(vib)   ...       0.01 
freq.    1175.47  E(vib)   ...       0.01 
freq.    1201.64  E(vib)   ...       0.01 
freq.    1202.73  E(vib)   ...       0.01 
freq.    1207.56  E(vib)   ...       0.01 
freq.    1212.21  E(vib)   ...       0.01 
freq.    1214.68  E(vib)   ...       0.01 
freq.    1226.05  E(vib)   ...       0.01 
freq.    1237.96  E(vib)   ...       0.01 
freq.    1248.04  E(vib)   ...       0.01 
freq.    1251.47  E(vib)   ...       0.01 
freq.    1286.37  E(vib)   ...       0.01 
freq.    1295.95  E(vib)   ...       0.01 
freq.    1315.15  E(vib)   ...       0.01 
freq.    1325.23  E(vib)   ...       0.01 
freq.    1330.15  E(vib)   ...       0.01 
freq.    1351.71  E(vib)   ...       0.01 
freq.    1352.67  E(vib)   ...       0.01 
freq.    1356.74  E(vib)   ...       0.01 
freq.    1362.87  E(vib)   ...       0.01 
freq.    1371.99  E(vib)   ...       0.01 
freq.    1392.12  E(vib)   ...       0.00 
freq.    1414.55  E(vib)   ...       0.00 
freq.    1466.21  E(vib)   ...       0.00 
freq.    1479.80  E(vib)   ...       0.00 
freq.    1497.29  E(vib)   ...       0.00 
freq.    1498.28  E(vib)   ...       0.00 
freq.    1501.56  E(vib)   ...       0.00 
freq.    1532.69  E(vib)   ...       0.00 
freq.    1535.60  E(vib)   ...       0.00 
freq.    1542.63  E(vib)   ...       0.00 
freq.    1547.64  E(vib)   ...       0.00 
freq.    1561.27  E(vib)   ...       0.00 
freq.    1641.82  E(vib)   ...       0.00 
freq.    1642.44  E(vib)   ...       0.00 
freq.    1657.66  E(vib)   ...       0.00 
freq.    1660.53  E(vib)   ...       0.00 
freq.    1661.58  E(vib)   ...       0.00 
freq.    1662.34  E(vib)   ...       0.00 
freq.    1680.45  E(vib)   ...       0.00 
freq.    1684.46  E(vib)   ...       0.00 
freq.    3018.88  E(vib)   ...       0.00 
freq.    3110.88  E(vib)   ...       0.00 
freq.    3173.41  E(vib)   ...       0.00 
freq.    3179.43  E(vib)   ...       0.00 
freq.    3181.75  E(vib)   ...       0.00 
freq.    3183.92  E(vib)   ...       0.00 
freq.    3184.18  E(vib)   ...       0.00 
freq.    3188.51  E(vib)   ...       0.00 
freq.    3194.59  E(vib)   ...       0.00 
freq.    3194.78  E(vib)   ...       0.00 
freq.    3196.47  E(vib)   ...       0.00 
freq.    3196.66  E(vib)   ...       0.00 
freq.    3197.86  E(vib)   ...       0.00 
freq.    3204.42  E(vib)   ...       0.00 
freq.    3205.34  E(vib)   ...       0.00 
freq.    3205.79  E(vib)   ...       0.00 
freq.    3206.00  E(vib)   ...       0.00 
freq.    3217.40  E(vib)   ...       0.00 
freq.    3217.49  E(vib)   ...       0.00 
freq.    3218.72  E(vib)   ...       0.00 
freq.    3218.88  E(vib)   ...       0.00 
freq.    3223.79  E(vib)   ...       0.00 
freq.    3225.19  E(vib)   ...       0.00 
freq.    3233.82  E(vib)   ...       0.00 
freq.    3239.78  E(vib)   ...       0.00 

------------
INNER ENERGY
------------

The inner energy is: U= E(el) + E(ZPE) + E(vib) + E(rot) + E(trans)
    E(el)   - is the total energy from the electronic structure calculation
              = E(kin-el) + E(nuc-el) + E(el-el) + E(nuc-nuc)
    E(ZPE)  - the the zero temperature vibrational energy from the frequency calculation
    E(vib)  - the the finite temperature correction to E(ZPE) due to population
              of excited vibrational states
    E(rot)  - is the rotational thermal energy
    E(trans)- is the translational thermal energy

Summary of contributions to the inner energy U:
Electronic energy                ...  -1082.03948676 Eh
Zero point energy                ...      0.44489506 Eh     279.18 kcal/mol
Thermal vibrational correction   ...      0.02031306 Eh      12.75 kcal/mol
Thermal rotational correction    ...      0.00141627 Eh       0.89 kcal/mol
Thermal translational correction ...      0.00141627 Eh       0.89 kcal/mol
-----------------------------------------------------------------------
Total thermal energy                  -1081.57144610 Eh


Summary of corrections to the electronic energy:
(perhaps to be used in another calculation)
Total thermal correction                  0.02314560 Eh      14.52 kcal/mol
Non-thermal (ZPE) correction              0.44489506 Eh     279.18 kcal/mol
-----------------------------------------------------------------------
Total correction                          0.46804066 Eh     293.70 kcal/mol


--------
ENTHALPY
--------

The enthalpy is H = U + kB*T
                kB is Boltzmann's constant
Total thermal energy              ...  -1081.57144610 Eh 
Thermal Enthalpy correction       ...      0.00094421 Eh       0.59 kcal/mol
-----------------------------------------------------------------------
Total Enthalpy                    ...  -1081.57050189 Eh


Note: Only C1 symmetry has been detected, increase convergence thresholds 
      if your molecule has a higher symmetry. Symmetry factor of 1.0 is   
      used for the rotational entropy correction. 
 

Note: Rotational entropy computed according to Herzberg 
Infrared and Raman Spectra, Chapter V,1, Van Nostrand Reinhold, 1945 
Point Group:  C1, Symmetry Number:   1  
Rotational constants in cm-1:     0.007335     0.005170     0.004391 

Vibrational entropy computed according to the QRRHO of S. Grimme
Chem.Eur.J. 2012 18 9955 using a reference frequency of 100.0 cm-1


-------
ENTROPY
-------

The entropy contributions are T*S = T*(S(el)+S(vib)+S(rot)+S(trans))
     S(el)   - electronic entropy
     S(vib)  - vibrational entropy
     S(rot)  - rotational entropy
     S(trans)- translational entropy
The entropies will be listed as multiplied by the temperature to get
units of energy

Electronic entropy                ...      0.00065446 Eh      0.41 kcal/mol
Vibrational entropy               ...      0.03665341 Eh     23.00 kcal/mol
Rotational entropy                ...      0.01687920 Eh     10.59 kcal/mol
Translational entropy             ...      0.02069131 Eh     12.98 kcal/mol
-----------------------------------------------------------------------
Final entropy term                ...      0.07487838 Eh     46.99 kcal/mol

In case the symmetry of your molecule has not been determined correctly
or in case you have a reason to use a different symmetry number we print 
out the resulting rotational entropy values for sn=1,12:

 non-linear molecules -----------------------------------
|  sn= 1 | S(rot)=       0.01687920 Eh     10.59 kcal/mol|
|  sn= 2 | S(rot)=       0.01622474 Eh     10.18 kcal/mol|
|  sn= 3 | S(rot)=       0.01584191 Eh      9.94 kcal/mol|
|  sn= 4 | S(rot)=       0.01557029 Eh      9.77 kcal/mol|
|  sn= 5 | S(rot)=       0.01535960 Eh      9.64 kcal/mol|
|  sn= 6 | S(rot)=       0.01518745 Eh      9.53 kcal/mol|
|  sn= 7 | S(rot)=       0.01504191 Eh      9.44 kcal/mol|
|  sn= 8 | S(rot)=       0.01491583 Eh      9.36 kcal/mol|
|  sn= 9 | S(rot)=       0.01480462 Eh      9.29 kcal/mol|
|  sn=10 | S(rot)=       0.01470514 Eh      9.23 kcal/mol|
|  sn=11 | S(rot)=       0.01461515 Eh      9.17 kcal/mol|
|  sn=12 | S(rot)=       0.01453300 Eh      9.12 kcal/mol|
 linear molecules ---------------------------------------
|  Dinfh | S(rot)=       0.01045093 Eh      6.56 kcal/mol|
|  Cinfv | S(rot)=       0.01110538 Eh      6.97 kcal/mol|
 --------------------------------------------------------


-------------------
GIBBS FREE ENERGY
-------------------

The Gibbs free energy is G = H - T*S

Total enthalpy                    ...  -1081.57050189 Eh 
Total entropy correction          ...     -0.07487838 Eh    -46.99 kcal/mol
-----------------------------------------------------------------------
Final Gibbs free energy         ...  -1081.64538026 Eh

For completeness - the Gibbs free energy minus the electronic energy
G-E(el)                           ...      0.39410649 Eh    247.31 kcal/mol


Maximum memory used throughout the entire PROP-calculation: 537.7 MB

--------------------------------
SUGGESTED CITATIONS FOR THIS RUN
--------------------------------

Below you find a list of papers that are relevant to this ORCA run
We neither can nor want to force you to cite these papers, but we appreciate if you do
You receive ORCA, which is the product of decades of hard work by many enthusiastic individuals, for free
The only thing we kindly ask in return is that you cite our papers,
We deeply appreciate it, if you show your appreciation for ORCA by not just citing the generic ORCA reference.

Please note that relegating all ORCA citations to the supporting information does *not* help us.
SI sections are not indexed - citations you put there will not count into any citation statistics
But we need these citations in order to attract the funding resources that allow us to do what we are doing

Therefore, if you are a happy ORCA user, please consider citing a few of the papers listed below in the main body of your paper

In addition to the list printed below, the program has created the file PreTS_BCXVYZIMXILZPC-UHFFFAOYSA-N.bibtex that contains the list in bibtex format
You can import this file easily into all common literature databanks and citation aid programs


List of essential papers. We consider these as the minimum necessary citations

  1. Neese,F.
     Software update: the ORCA program system, version 5.0
     WIRES Comput. Molec. Sci., 2022 12(1)e1606
     doi.org/10.1002/wcms.1606

List of papers to cite with high priority. The work reported in these papers was absolutely
necessary for this run to complete.
Our perspective: the developers of density functionals and basis sets usually get cited in chemistry papers
Good! But without the algorithms to do something with them, the functionals or basis sets would not do anything.
Hence, in our opinion, the algorithm design and method developments papers are equally worthy of getting cited

  1. Neese,F.
     An improvement of the resolution of the identity approximation for the formation of the Coulomb matrix
     J. Comp. Chem., 2003 24(14)1740-1747
     doi.org/10.1002/jcc.10318
  2. Neese,F.; Wennmohs,F.; Hansen,A.; Becker,U.
     Efficient, approximate and parallel Hartree-Fock and hybrid DFT calculations. A 'chain-of-spheres' algorithm for the Hartree-Fock exchange
     Chem. Phys., 2009 356(1-3)98-109
     doi.org/10.1016/j.chemphys.2008.10.036
  3. Bykov,D.; Petrenko,T.; Izsak,R.; Kossmann,S.; Becker,U.; Valeev,E.; Neese,F.
     Efficient implementation of the analytic second derivatives of Hartree-Fock and hybrid DFT energies: a detailed analysis of different approximations
     Molec. Phys., 2015 113 1961-1977
     doi.org/10.1080/00268976.2015.1025114
  4. Garcia-Rates,M.; Neese,F.
     Efficient implementation of the analytical second derivatives of hartree-fock and hybrid DFT energies within the framework of the conductor-like polarizable continuum model
     J. Comput. Chem., 2019 40 1816-1828
     doi.org/10.1002/jcc.25833
  5. Garcia-Rates,M.; Neese,F.
     Effect of the Solute Cavity on the Solvation Energy and its Derivatives within the Framework of the Gaussian Charge Scheme
     J. Comput. Chem., 2020 41 922-939
     doi.org/10.1002/jcc.26139
  6. Helmich-Paris,B.; de Souza,B.; Neese,F.; Izsák,R.
     An improved chain of spheres for exchange algorithm
     J. Chem. Phys., 2021 155 104109
     doi.org/doi: 10.1063/5.0058766.
  7. Neese,F.
     The SHARK Integral Generation and Digestion System
     J. Comp. Chem., 2022  1-16
     doi.org/10.1002/jcc.26942
  8. Grimme,S.; Antony,J.; Ehrlich,S.; Krieg,H.
     A consistent and accurate ab initio parametrization of density functional dispersion correction (DFT-D) for the 94 elements H-Pu
     J. Chem. Phys., 2010 132 154104-XXXX
     doi.org/10.1063/1.3382344

List of suggested additional citations. These are papers that are important in the 'surrounding' of 
of this run, or papers that preceded the highly important papers. If you like your results we are grateful for a citation.

  1. Izsak,R.; Neese,F.
     An overlap fitted chain of spheres exchange method
     J. Chem. Phys., 2011 135 144105
     doi.org/10.1063/1.3646921
  2. Izsak,R.; Hansen,A.; Neese,F.
     The resolution of identity and chain of spheres approximations for the LPNO-CCSD singles Fock term
     Molec. Phys., 2012 110 2413-2417
     doi.org/10.1080/00268976.2012.687466
  3. Neese,F.
     The ORCA program system
     WIRES Comput. Molec. Sci., 2012 2(1)73-78
     doi.org/10.1002/wcms.81
  4. Izsak,R.; Neese,F.; Klopper,W.
     Robust fitting techniques in the chain of spheres approximation to the Fock exchange: The role of the complementary space
     J. Chem. Phys., 2013 139 
     doi.org/10.1063/1.4819264
  5. Neese,F.
     Software update: the ORCA program system, version 4.0
     WIRES Comput. Molec. Sci., 2018 8(1)1-6
     doi.org/10.1002/wcms.1327
  6. Neese,F.; Wennmohs,F.; Becker,U.; Riplinger,C.
     The ORCA quantum chemistry program package
     J. Chem. Phys., 2020 152 Art. No. L224108
     doi.org/10.1063/5.0004608

List of optional additional citations

  1. Neese,F.
     Approximate second-order SCF convergence for spin unrestricted wavefunctions
     Chem. Phys. Lett., 2000 325(1-3)93-98
     doi.org/10.1016/s0009-2614(00)00662-x

Timings for individual modules:

Sum of individual times          ...    16889.106 sec (= 281.485 min)
Startup calculation              ...      134.246 sec (=   2.237 min)   0.8 %
SCF iterations                   ...     5786.083 sec (=  96.435 min)  34.3 %
Property integrals               ...     2816.272 sec (=  46.938 min)  16.7 %
SCF Response                     ...     5124.339 sec (=  85.406 min)  30.3 %
Property calculations            ...     1092.674 sec (=  18.211 min)   6.5 %
SCF Gradient evaluation          ...     1934.442 sec (=  32.241 min)  11.5 %
Geometry relaxation              ...        1.049 sec (=   0.017 min)   0.0 %
                             ****ORCA TERMINATED NORMALLY****
TOTAL RUN TIME: 0 days 4 hours 41 minutes 47 seconds 123 msec
